ITEM: TIMESTEP
0
ITEM: NUMBER OF ATOMS
29440
ITEM: BOX BOUNDS pp pp pp
-100 100
-100 100
-100 100
ITEM: ATOMS id mol type x y z mux muy muz memE memEr memEa
1 0 1 -14.9373 -67.4575 1.81245 0.0844799 0.00173879 0.996424 -11.0573898473 -15.1461930767 4.08880322936
2 0 1 -58.367 64.2147 5.61293 0.127346 -0.0499754 0.990599 -14.7092289254 -15.7948310096 1.08560208415
3 0 1 -66.9244 -48.136 5.06872 0.0468457 0.0667434 0.99667 -11.7895778557 -14.0800969382 2.29051908258
4 0 1 9.40487 4.91274 -18.6915 -0.825403 0.49099 0.278639 -11.01448235242 -13.8889201391 2.874437786676
5 0 1 -35.3182 65.3314 3.32682 -0.101967 0.105842 0.989141 -12.4332730194 -14.1538184189 1.72054539952
6 0 1 -29.6887 17.2189 -2.75129 0.342219 -0.0957834 0.934726 -12.21052085267 -14.03120800473 1.82068715208
7 0 1 -24.7547 16.3952 -3.96126 0.401021 -0.111625 0.909243 -12.22183015573 -14.02572205574 1.8038919000229998
8 0 1 -40.3042 61.8991 4.88495 0.178409 -0.000166873 0.983956 -13.9729146538 -14.7705843613 0.797669707532
9 0 1 -15.683 -57.1745 3.04659 0.313121 0.0394011 0.948896 -12.6264467299 -14.3595852492 1.73313851926
10 0 1 -45.075 -10.9251 1.87571 0.26977 0.0922303 0.958498 -12.3844771659 -14.9845220372 2.60004487136
11 0 1 22.4336 28.4652 -9.41175 -0.224151 -0.163875 0.960678 -12.188482332660001 -14.0242851965 1.8358028638400001
12 0 1 -4.74289 44.3269 -5.69567 0.0901878 -0.502528 0.859844 -12.2094483018 -14.02330390855 1.8138556067549998
13 0 1 -65.9468 68.1861 5.35023 -0.34932 0.205959 0.914088 -13.3757894998 -15.28744078 1.91165128015
14 0 1 46.3035 66.9679 1.91025 -0.147075 -0.111919 0.982773 -13.0072327038 -14.7148740736 1.70764136983
15 0 1 -40.0048 -10.542 1.15153 -0.0158525 -0.25916 0.965704 -12.9961654027 -15.429385776 2.43322037325
16 0 1 37.8056 -56.4177 0.435377 -0.27164 0.394456 0.877848 -10.7163037458 -12.3968809127 1.68057716684
17 0 1 -54.7776 -60.6297 4.62462 0.144681 -0.0473033 0.988347 -13.0548410281 -15.428825964 2.37398493593
18 0 1 56.0063 5.23096 -1.41909 -0.04574 0.0560918 0.997377 -12.21230962716 -14.033167755120001 1.820858127975
19 0 1 -33.7297 -9.34608 0.00452626 0.308543 -0.0329312 0.95064 -11.6777606462 -13.0095257049 1.33176505872
20 0 1 69.3406 41.7123 2.80534 -0.284498 0.0430185 0.957711 -8.23788874356 -12.0270486203 3.78915987679
21 0 1 38.662 43.9238 -0.673063 -0.139147 -0.438418 0.887935 -10.9996238154 -12.8316051293 1.83198131395
22 0 1 13.296 -72.4825 1.5255 0.00253551 0.0367304 0.999322 -9.68798189644 -12.6482522565 2.96027036002
23 0 1 -56.8732 -38.4305 5.21307 0.20146 0.00233074 0.979494 -14.367501834 -16.2619968306 1.89449499664
24 0 1 -30.6688 66.6017 2.90787 0.245574 0.0386181 0.968608 -12.8139150613 -14.912159824 2.09824476273
25 0 1 -2.3672 -44.4878 -2.25484 -0.00905738 0.18359 0.982961 -12.21052085267 -14.03120800473 1.82068715208
26 0 1 11.9295 58.9185 -1.06859 -0.170833 -0.0829027 0.981806 -12.21230962716 -14.033167755120001 1.820858127975
27 0 1 6.92268 13.852 -16.7974 -0.015544 -0.299249 0.954048 -12.00908746667 -13.978557332969999 1.969469866284
28 0 1 -35.4701 26.0011 -0.655782 0.290104 0.0659122 0.954723 -12.8409696228 -15.0643192231 2.22334960029
29 0 1 -76.6714 73.6629 3.5543 -0.19037 0.0880117 0.977759 -5.80265924866 -6.35186115256 0.549201903903
30 0 1 46.0872 70.148 2.31657 -0.223057 -0.167238 0.960353 -12.9545976442 -15.797275356 2.84267771176
31 0 1 65.3793 -26.5571 2.09167 -0.283563 -0.193355 0.939258 -6.14272323936 -9.70669624156 3.5639730022
32 0 1 15.1788 23.3221 -12.0959 -0.526402 -0.287746 0.800064 -12.22465175504 -14.04215016519 1.8174984101420002
33 0 1 -42.0703 14.989 2.54708 0.340224 -0.0737022 0.937452 -12.0183544051 -13.3755823442 1.35722793911
34 0 1 38.4653 -47.1095 -0.638242 -0.254078 -0.155782 0.954555 -13.450762094 -14.2078150736 0.757052979623
35 0 1 5.63444 73.3533 1.4001 0.0422371 -0.133085 0.990204 -13.7301792205 -14.9538609576 1.22368173712
36 0 1 -50.0056 64.0488 5.76899 0.0463376 0.165705 0.985086 -11.7256003746 -14.9194600725 3.19385969792
37 0 1 46.8087 9.78318 -3.98437 -0.341063 0.273782 0.899288 -12.22183015573 -14.02572205574 1.8038919000229998
38 0 1 35.3883 -43.8002 -1.23333 -0.320174 -0.217471 0.92206 -12.21230962716 -14.033167755120001 1.820858127975
39 0 1 57.9061 -5.46109 -0.0819193 -0.00736418 0.15998 0.987093 -12.1405515007 -13.3270840061 1.18653250545
40 0 1 -26.1395 5.19279 -3.93371 0.465297 0.381887 0.798537 -12.22183015573 -14.02572205574 1.8038919000229998
41 0 1 50.5608 -30.6769 1.07633 -0.138685 0.125701 0.982327 -15.5783767128 -16.6222146047 1.04383789191
42 0 1 -8.33283 28.1384 -9.29379 0.450092 -0.105832 0.886689 -12.188482332660001 -14.0242851965 1.8358028638400001
43 0 1 44.7413 -17.7704 -2.43298 -0.202957 0.032657 0.978643 -12.21052085267 -14.03120800473 1.82068715208
44 0 1 -43.4439 13.6546 2.86482 0.381206 -0.0522406 0.923013 -10.8509960692 -12.6010656303 1.75006956104
45 0 1 -5.62175 16.5163 -11.6141 0.403647 -0.350888 0.844954 -12.20006441432 -14.025112860020002 1.8250484456989997
46 0 1 38.5307 16.7661 -6.97239 -0.342629 -0.128806 0.930599 -12.176039217839998 -14.02471280659 1.8486735887519998
47 0 1 -74.0981 -12.521 4.56543 0.0783067 0.00110783 0.996929 -14.5874935539 -16.0927167805 1.50522322662
48 0 1 -53.3917 28.3075 4.44147 -0.142791 -0.108763 0.983759 -13.1900371337 -14.7633603145 1.57332318077
49 0 1 59.7779 10.4552 -1.55679 0.0155892 0.050771 0.998589 -12.21230962716 -14.033167755120001 1.820858127975
50 0 1 -50.5131 3.47458 4.07243 0.127991 -0.130897 0.983099 -10.5042012026 -13.4468316431 2.94263044055
51 0 1 52.3565 -10.2095 -0.355027 -0.0253943 0.0848537 0.99607 -11.1190596119 -13.1510107803 2.03195116841
52 0 1 4.46814 2.2759 -16.0622 0.211166 0.625514 0.751093 -12.00908746667 -13.978557332969999 1.969469866284
53 0 1 42.2262 67.0561 1.78828 0.160011 -0.024445 0.986812 -8.96415656396 -11.5267771929 2.56262062899
54 0 1 -68.8633 17.1082 3.77562 -0.155322 0.0129089 0.987779 -12.2524149415 -13.614812441 1.3623974995
55 0 1 69.2792 16.1792 -0.196774 -0.0673393 -0.129544 0.989284 -11.875967461 -13.3742151953 1.49824773424
56 0 1 76.8515 42.8145 3.09527 0.124622 -0.191694 0.973511 -6.35578372935 -7.11675680923 0.760973079883
57 0 1 35.9507 54.5349 1.38678 0.00945811 -0.221095 0.975206 -12.2821525365 -13.9090789804 1.62692644383
58 0 1 -52.8023 58.685 5.35815 -0.145325 0.0117837 0.989314 -12.2358898175 -14.3668689433 2.13097912589
59 0 1 41.7471 19.8438 -5.1638 -0.231585 -0.161555 0.959306 -12.2094483018 -14.02330390855 1.8138556067549998
60 0 1 -52.6153 53.8475 5.26163 -0.162935 0.0038853 0.986629 -9.16986887813 -11.8079643027 2.63809542454
61 0 1 -26.2026 68.8734 2.52735 -0.0169415 -0.167087 0.985797 -12.028761294 -13.3531642289 1.32440293493
62 0 1 62.8562 60.5666 4.55961 -0.160463 -0.0321642 0.986518 -12.0099160845 -13.5296364774 1.51972039285
63 0 1 -55.5028 31.8588 4.40261 0.117159 0.207088 0.971282 -12.5820297989 -14.0524928788 1.47046307987
64 0 1 2.96334 7.56941 -23.7573 0.949916 -0.306867 -0.0590995 -11.182962704089999 -14.176218263940001 2.993255559865
65 0 1 6.05541 9.52878 -34.2869 -0.517666 -0.816959 0.254167 -11.25338590705 -14.084504424119999 2.831118517087
66 0 1 25.3603 -66.375 -0.689951 -0.10482 0.259959 0.959914 -11.7329887263 -14.5362627742 2.80327404792
67 0 1 -69.6854 -42.5284 4.73778 -0.134363 0.0276581 0.990546 -12.2870790286 -14.0119033147 1.72482428608
68 0 1 1.89194 17.5777 -14.69 0.110872 -0.399429 0.910035 -12.23694773282 -14.104688365880003 1.867740633061
69 0 1 -63.6199 -33.7143 4.66188 -0.259162 0.194479 0.946051 -11.5085730601 -13.6057221355 2.09714907539
70 0 1 8.64095 4.72185 -23.4657 -0.786729 0.550638 0.279025 -11.182962704089999 -14.176218263940001 2.993255559865
71 0 1 -59.8031 69.6241 5.70541 0.070321 0.16529 0.983735 -11.7679484137 -12.8483789354 1.08043052169
72 0 1 2.96728 -11.7363 -10.2929 0.217193 0.469025 0.856062 -12.1664976471 -14.00933128934 1.84283364225
73 0 1 28.47 19.1511 -9.35543 -0.303853 -0.153876 0.94021 -12.188482332660001 -14.0242851965 1.8358028638400001
74 0 1 22.8427 29.2872 -8.99784 -0.179174 -0.201187 0.963027 -12.188482332660001 -14.0242851965 1.8358028638400001
75 0 1 -30.7174 -20.4917 -1.04315 0.250204 0.0348263 0.967567 -12.21230962716 -14.033167755120001 1.820858127975
76 0 1 -9.51985 -74.3321 1.01386 -0.238541 -0.217411 0.946483 -10.2641693389 -11.4434341825 1.17926484365
77 0 1 -27.4855 66.5089 2.62816 -0.0877196 0.273425 0.957885 -11.229078915 -12.9827663213 1.75368740631
78 0 1 -55.0122 28.3443 4.52285 0.112025 0.0257032 0.993373 -9.43456485351 -10.353615142 0.919050288507
79 0 1 26.9791 47.4435 -2.20606 0.00381261 -0.0510949 0.998687 -12.21052085267 -14.03120800473 1.82068715208
80 0 1 40.4102 3.29762 -5.15669 -0.322529 0.225788 0.919236 -12.2094483018 -14.02330390855 1.8138556067549998
81 0 1 14.1761 22.1831 -13.1392 -0.391772 -0.149624 0.907815 -12.217238738949998 -14.01658126562 1.79934252665
82 0 1 -58.3924 26.1857 4.75941 -0.0976709 0.132185 0.986401 -13.4246593765 -14.9222051852 1.4975458087
83 0 1 11.8518 -58.1332 -0.438449 0.0928973 0.266117 0.959454 -12.6170047764 -14.3662089625 1.74920418608
84 0 1 15.617 7.9539 -14.5541 -0.500025 -0.0880678 0.861521 -12.23694773282 -14.104688365880003 1.867740633061
85 0 1 51.0806 -3.63252 -1.97233 -0.060981 -0.0557414 0.996581 -12.21052085267 -14.03120800473 1.82068715208
86 0 1 12.0103 -20.0764 -7.55557 -0.354758 0.069171 0.932396 -12.176039217839998 -14.02471280659 1.8486735887519998
87 0 1 -53.5308 59.3866 5.48689 -0.101956 0.0812289 0.991467 -11.1495258913 -13.9982947296 2.84876883835
88 0 1 -40.3556 66.5594 3.9075 0.359155 -0.0486071 0.932011 -13.1788905815 -14.8414699754 1.66257939388
89 0 1 -75.9891 -52.4715 2.46305 0.0100303 -0.0357265 0.999311 -11.1045899905 -12.0758399869 0.971249996394
90 0 1 -15.6139 66.5934 1.54881 0.0695605 0.119246 0.990425 -14.4602453011 -15.768458527 1.3082132259
91 0 1 -15.5033 55.408 0.817382 0.121474 -0.426858 0.896123 -8.00345516147 -9.88392775665 1.88047259518
92 0 1 25.5141 -11.3389 -7.3203 -0.149966 0.257493 0.954572 -12.176039217839998 -14.02471280659 1.8486735887519998
93 0 1 -52.0328 -7.85817 3.65104 0.331911 0.00247785 0.943307 -12.2192921005 -13.5555799798 1.33628787935
94 0 1 10.443 72.675 1.32689 0.168297 -0.183755 0.968458 -8.49763119048 -13.267933644 4.7703024535
95 0 1 68.0174 -66.9979 3.08702 -0.0723528 0.149679 0.986084 -11.4171061919 -12.7831954425 1.36608925063
96 0 1 -57.3834 -64.2445 4.17809 0.0406844 -0.0565836 0.997569 -11.9413611571 -13.7509009569 1.80953979978
97 0 1 -15.4119 57.0243 1.03126 0.114727 -0.127034 0.985241 -12.8760997282 -14.1412502731 1.26515054492
98 0 1 72.689 54.6301 4.3499 -0.00582011 -0.0481365 0.998824 -13.6062672201 -15.9576026294 2.35133540922
99 0 1 23.7776 -8.94545 -8.43176 -0.0544353 0.367894 0.928273 -12.17748333644 -14.010406011729998 1.8329226753049999
100 0 1 -65.0926 -12.5261 3.99549 0.201519 0.0544732 0.977969 -9.49925242382 -12.095922619 2.59667019513
101 0 1 26.7908 -10.6602 -7.33195 0.0626262 0.430527 0.900403 -12.176039217839998 -14.02471280659 1.8486735887519998
102 0 1 -28.3923 36.6212 -0.56557 0.449431 0.00245251 0.893312 -12.7954968144 -14.299655382 1.50415856766
103 0 1 3.86375 34.3857 -9.84902 0.19386 -0.407667 0.892315 -12.188482332660001 -14.0242851965 1.8358028638400001
104 0 1 17.3029 48.5859 -3.20551 -0.205856 -0.293314 0.93359 -12.17267938377 -13.995122222460001 1.8224428386910003
105 0 1 -69.8922 43.1626 3.14743 -0.162344 0.111969 0.980361 -11.5418926172 -12.8466891156 1.30479649839
106 0 1 -67.1636 11.4426 4.2323 -0.326591 -0.128238 0.936426 -12.4459479283 -13.7898036023 1.34385567397
107 0 1 63.7121 -18.3757 2.48905 -0.0767633 -0.0517569 0.995705 -12.9113566371 -14.5069702095 1.59561357246
108 0 1 6.30346 59.1894 -0.511687 0.119629 0.074216 0.990041 -13.006320627 -15.4809708683 2.47465024132
109 0 1 -61.1845 13.9514 5.01542 -0.148169 0.10126 0.983764 -8.57362597798 -13.2354698209 4.66184384291
110 0 1 -75.9441 -12.1476 4.44557 0.0579694 0.195558 0.978977 -12.621639732 -13.5274408072 0.905801075167
111 0 1 54.2607 45.995 2.03636 -0.276762 -0.281068 0.918914 -12.5498106726 -14.8398703928 2.2900597202
112 0 1 39.5217 58.3761 2.12555 -0.0388234 -0.0864144 0.995503 -12.4183766525 -13.1840571154 0.765680462823
113 0 1 -10.7856 -8.00403 -8.0473 0.375938 0.331888 0.865171 -12.17748333644 -14.010406011729998 1.8329226753049999
114 0 1 13.5794 56.3703 -0.916068 -0.286607 -0.269855 0.919258 -12.21230962716 -14.033167755120001 1.820858127975
115 0 1 -66.8235 18.1686 4.07728 -0.17211 0.126017 0.976984 -11.4416182019 -12.7958858138 1.35426761188
116 0 1 -32.8916 -37.0559 0.750612 0.0786576 0.313484 0.94633 -11.2773002544 -12.8709849452 1.59368469079
117 0 1 10.8716 50.7654 -2.51748 -0.065975 -0.317523 0.945953 -12.21052085267 -14.03120800473 1.82068715208
118 0 1 -21.2877 75.4353 2.67459 0.0334463 -0.071088 0.996909 -13.0762341332 -14.203263288 1.12702915473
119 0 1 69.8049 -63.0269 2.67746 0.309022 -0.247677 0.918238 -11.9576682409 -15.061954676 3.10428643509
120 0 1 -53.4742 65.6287 5.97379 -0.13926 -0.0586679 0.988516 -11.7928878846 -13.7196031155 1.92671523091
121 0 1 -50.7444 60.0907 5.29393 -0.0862341 -0.139382 0.986477 -11.4571582363 -13.026984724 1.56982648768
122 0 1 53.0426 -21.0326 0.140063 -0.341654 0.0663359 0.937482 -14.1951669174 -15.3730631094 1.17789619199
123 0 1 -70.603 15.116 3.36513 -0.225028 0.0417015 0.97346 -11.8591324032 -13.7199242112 1.86079180797
124 0 1 44.4382 -19.5416 -2.31138 -0.268462 0.0306299 0.962803 -12.21052085267 -14.03120800473 1.82068715208
125 0 1 44.37 -24.919 -0.673496 -0.160844 0.482214 0.861161 -10.5310720418 -12.3763031287 1.84523108691
126 0 1 -23.0506 44.2911 0.197251 0.180028 -0.311546 0.933021 -13.9380297507 -15.3644556237 1.42642587306
127 0 1 -17.8596 -17.4843 -3.81883 0.194322 -0.0215367 0.980701 -12.17267938377 -13.995122222460001 1.8224428386910003
128 0 1 -5.08559 56.3232 -0.449112 0.179605 -0.128107 0.975362 -12.2998589629 -13.6457923909 1.345933428
129 0 1 47.0503 71.707 2.52156 -0.0564617 -0.0966069 0.99372 -11.976720329 -13.5406378053 1.56391747627
130 0 1 30.7935 13.1814 -9.9602 -0.410775 -0.206159 0.888123 -12.1664976471 -14.00933128934 1.84283364225
131 0 1 2.34448 -6.35747 -11.8179 0.157884 0.21081 0.964693 -12.20006441432 -14.025112860020002 1.8250484456989997
132 0 1 -60.3268 64.1425 5.8566 0.0221009 -0.236608 0.971354 -11.8630180966 -15.283674949 3.42065685243
133 0 1 -33.9105 -19.2458 -0.141461 0.130814 0.0119696 0.991335 -9.06856228878 -10.3425653823 1.27400309347
134 0 1 11.0022 28.1856 -11.8142 0.155195 -0.198162 0.967805 -12.20006441432 -14.025112860020002 1.8250484456989997
135 0 1 -61.6884 12.4542 5.31343 0.135884 0.15018 0.979276 -12.5468398135 -15.2226327071 2.67579289363
136 0 1 39.4806 -21.7252 -2.55734 -0.120195 0.421849 0.898664 -12.21052085267 -14.03120800473 1.82068715208
137 0 1 -75.2797 -35.6635 3.50682 -0.0583649 -0.0335544 0.997731 -11.158873712 -11.9517012309 0.792827518936
138 0 1 -41.7675 29.5145 1.88014 0.324534 0.103735 0.940169 -9.9840849376 -12.4227770432 2.43869210556
139 0 1 -10.9336 47.8858 -2.14033 0.332553 -0.457015 0.824952 -12.21052085267 -14.03120800473 1.82068715208
140 0 1 9.69401 17.6376 -14.8786 -0.026891 -0.474514 0.879837 -12.23694773282 -14.104688365880003 1.867740633061
141 0 1 28.7417 42.6264 -3.01551 -0.272937 -0.198087 0.941418 -12.17267938377 -13.995122222460001 1.8224428386910003
142 0 1 -25.1884 37.8006 -1.82108 0.160451 -0.165602 0.973053 -12.21230962716 -14.033167755120001 1.820858127975
143 0 1 -41.4835 30.2402 1.90053 0.152236 -0.114827 0.981651 -11.2957414161 -13.4557734972 2.16003208114
144 0 1 -11.0851 76.1314 1.12119 -0.0297288 0.178652 0.983463 -7.71380754027 -8.91248712752 1.19867958725
145 0 1 4.42125 -14.3993 -9.83438 0.157048 0.507666 0.847119 -12.188482332660001 -14.0242851965 1.8358028638400001
146 0 1 -2.89438 9.11401 -13.2039 0.515301 -0.0292557 0.85651 -12.217238738949998 -14.01658126562 1.79934252665
147 0 1 -38.879 -60.9289 4.90065 0.0837412 0.0636567 0.994452 -14.4895195694 -15.3223965275 0.832876958052
148 0 1 11.0571 -15.977 -9.0766 -0.111821 0.453297 0.884318 -12.188482332660001 -14.0242851965 1.8358028638400001
149 0 1 14.9803 -20.7819 -6.68678 -0.45454 -0.0306284 0.8902 -12.21180583566 -14.01357816078 1.801772325128
150 0 1 -3.80241 67.1182 1.01805 0.101776 -0.105483 0.989199 -9.87584150476 -12.5063338773 2.63049237252
151 0 1 -43.0946 -0.387656 2.11606 0.204075 -0.0310914 0.978461 -11.02904416 -14.3231437632 3.29409960321
152 0 1 -25.1272 23.0206 -3.43559 0.306318 -0.158245 0.938684 -12.17267938377 -13.995122222460001 1.8224428386910003
153 0 1 29.1762 20.9581 -8.71989 -0.133792 0.198114 0.971005 -12.17748333644 -14.010406011729998 1.8329226753049999
154 0 1 -51.2964 22.4287 4.47654 0.188348 0.199287 0.96167 -11.8028326167 -13.6307141762 1.82788155953
155 0 1 14.9079 -3.183 -12.5118 -0.511574 0.226176 0.828937 -12.22465175504 -14.04215016519 1.8174984101420002
156 0 1 -24.4208 67.843 2.4182 0.146557 -0.0182982 0.989033 -13.5823470232 -14.6792705653 1.09692354215
157 0 1 2.45239 41.69 -7.29108 -0.147026 -0.416123 0.897343 -12.176039217839998 -14.02471280659 1.8486735887519998
158 0 1 31.9051 -51.8403 -1.59275 0.135978 0.204291 0.96942 -12.21230962716 -14.033167755120001 1.820858127975
159 0 1 -16.696 -37.5563 -1.47448 0.338917 0.147079 0.929249 -12.21230962716 -14.033167755120001 1.820858127975
160 0 1 28.6987 -50.6458 -2.10123 -0.000797729 0.154593 0.987978 -12.21052085267 -14.03120800473 1.82068715208
161 0 1 -49.7536 28.1032 4.46505 -0.142655 0.121092 0.982337 -13.1603851601 -15.2003940364 2.0400088763
162 0 1 3.44406 -34.0353 -5.00027 -0.0352925 0.147635 0.988412 -12.2094483018 -14.02330390855 1.8138556067549998
163 0 1 59.5072 22.6701 -1.23074 -0.0105672 0.0687352 0.997579 -12.21230962716 -14.033167755120001 1.820858127975
164 0 1 66.5478 52.3222 3.98718 0.201013 -0.151866 0.967745 -14.9604017601 -15.9201878732 0.959786113073
165 0 1 44.9998 17.0395 -4.42306 -0.464467 -0.091787 0.880821 -12.22183015573 -14.02572205574 1.8038919000229998
166 0 1 51.2545 -40.0434 1.18304 -0.313212 0.278514 0.907925 -11.5329573605 -14.8997111379 3.36675377743
167 0 1 -3.14073 -4.20198 -10.829 0.304071 0.139705 0.94235 -12.1664976471 -14.00933128934 1.84283364225
168 0 1 -3.54665 -19.9182 -7.08854 0.430044 0.324959 0.842297 -12.176039217839998 -14.02471280659 1.8486735887519998
169 0 1 41.9916 -37.4012 0.206008 -0.165197 -0.233309 0.958268 -12.6463445694 -14.4727043546 1.82635978519
170 0 1 69.6795 -67.1765 2.72635 -0.00594599 0.156663 0.987634 -11.207161032 -14.6098149078 3.40265387577
171 0 1 -17.0849 -11.981 -4.94999 0.360284 0.187347 0.913836 -12.2094483018 -14.02330390855 1.8138556067549998
172 0 1 -34.6984 57.0252 4.08659 0.0633145 0.0733267 0.995296 -11.1433859376 -13.1914399283 2.04805399069
173 0 1 -58.2657 -42.9123 5.47844 0.207965 -0.0806472 0.974806 -12.0461696008 -13.859757254 1.81358765328
174 0 1 -45.8759 -50.0989 4.83341 -0.0403869 0.26149 0.964361 -11.8452506748 -13.4002858774 1.55503520253
175 0 1 -29.4523 69.059 2.87988 0.0782513 0.0182154 0.996767 -12.6475802144 -13.5746770477 0.927096833264
176 0 1 -63.8211 75.4968 4.95328 -0.162141 0.315391 0.935007 -12.0785342987 -13.6442702052 1.56573590656
177 0 1 42.6329 -26.1077 -0.91341 -0.123654 0.277162 0.952833 -12.2436300699 -12.8825851699 0.638955099958
178 0 1 26.0331 -2.88717 -9.57602 -0.0854072 0.202857 0.975477 -12.188482332660001 -14.0242851965 1.8358028638400001
179 0 1 21.6397 -1.34618 -11.064 -0.380915 0.258388 0.887772 -12.20006441432 -14.025112860020002 1.8250484456989997
180 0 1 16.2817 27.5983 -11.0158 -0.158735 -0.165563 0.973341 -12.20006441432 -14.025112860020002 1.8250484456989997
181 0 1 72.8348 34.9024 2.59628 -0.105873 0.00440028 0.99437 -13.9173363037 -14.6316310742 0.714294770519
182 0 1 -22.8298 18.0659 -4.77709 0.434203 -0.26247 0.861729 -12.22183015573 -14.02572205574 1.8038919000229998
183 0 1 8.08396 -73.5618 2.12087 0.00635009 0.048722 0.998792 -13.3284870824 -14.6492051253 1.32071804294
184 0 1 19.3617 -15.2464 -6.67513 -0.339765 0.374146 0.862887 -12.21180583566 -14.01357816078 1.801772325128
185 0 1 -73.6166 -39.1619 3.64294 -0.105566 0.0185782 0.994239 -13.0912726811 -14.0837138771 0.992441195977
186 0 1 -21.4887 14.5831 -5.96295 0.406126 -0.104548 0.907817 -12.21180583566 -14.01357816078 1.801772325128
187 0 1 17.2602 41.7036 -6.18289 -0.0399179 -0.419426 0.906911 -12.21180583566 -14.01357816078 1.801772325128
188 0 1 -29.4056 -62.6982 4.04394 0.130026 0.0306222 0.991038 -13.3147991386 -14.2234957875 0.908696648912
189 0 1 -64.3802 -51.2042 4.64517 0.0739181 -0.0827351 0.993826 -12.6358474407 -15.3135779374 2.6777304967
190 0 1 -52.5657 1.72766 4.54644 0.0267097 0.0656174 0.997487 -9.01862058375 -11.522445872 2.50382528827
191 0 1 31.6136 -31.6009 -2.61098 -0.279054 -0.0545951 0.958722 -12.21052085267 -14.03120800473 1.82068715208
192 0 1 26.7268 -8.78518 -7.93279 -0.208046 0.305024 0.929342 -12.17748333644 -14.010406011729998 1.8329226753049999
193 0 1 11.2942 44.7237 -5.39839 -0.0974844 -0.427346 0.898817 -12.2094483018 -14.02330390855 1.8138556067549998
194 0 1 -9.42112 23.2722 -8.77433 0.521738 -0.224286 0.823095 -12.17748333644 -14.010406011729998 1.8329226753049999
195 0 1 16.4493 -21.4384 -6.20247 -0.25621 0.138895 0.95659 -12.21180583566 -14.01357816078 1.801772325128
196 0 1 -35.0289 26.7908 -0.613145 0.196767 -0.245739 0.949155 -10.9496568495 -12.8341218469 1.88446499738
197 0 1 30.1057 -10.0252 -6.51744 -0.276449 0.190661 0.941926 -12.21180583566 -14.01357816078 1.801772325128
198 0 1 67.6952 -40.8357 2.61746 -0.198313 -0.117839 0.973029 -11.2722618633 -12.1794746565 0.907212793206
199 0 1 15.6814 61.3302 -0.317562 0.0570908 0.235798 0.970124 -9.2164140413 -12.4391889584 3.22277491715
200 0 1 -9.64089 -11.0952 -7.6623 0.233128 0.184674 0.95475 -12.176039217839998 -14.02471280659 1.8486735887519998
201 0 1 56.2739 58.3412 3.70651 -0.184824 0.062248 0.980798 -13.9977257672 -15.1842342668 1.18650849968
202 0 1 -20.8966 -69.2138 2.90974 0.338487 -0.216274 0.915779 -12.2354097353 -14.2246165874 1.98920685213
203 0 1 28.8767 -44.7837 -2.85472 -0.0870039 -0.0270906 0.99584 -12.21052085267 -14.03120800473 1.82068715208
204 0 1 -3.20808 52.2505 -1.50171 0.149237 -0.442813 0.884107 -12.21230962716 -14.033167755120001 1.820858127975
205 0 1 -45.8851 -71.1763 5.07318 -0.0139352 0.153142 0.988106 -11.1836345436 -13.6489083251 2.46527378148
206 0 1 29.7417 -72.9463 0.592724 -0.146873 0.00867483 0.989117 -11.0708121626 -12.341946785 1.27113462246
207 0 1 -55.7663 53.8617 5.15158 0.117148 -0.0482894 0.99194 -10.5448678534 -13.7661416447 3.22127379129
208 0 1 -32.7254 16.265 -1.14256 0.422892 -0.227397 0.877184 -12.21230962716 -14.033167755120001 1.820858127975
209 0 1 -11.0422 43.3116 -4.2297 0.233595 -0.301974 0.924254 -12.22183015573 -14.02572205574 1.8038919000229998
210 0 1 -59.7999 -28.1939 3.85552 0.210807 -0.0642258 0.975415 -8.16137425333 -11.1796622197 3.01828796636
211 0 1 54.015 22.5215 -1.79358 -0.0746432 -0.10645 0.991512 -12.21230962716 -14.033167755120001 1.820858127975
212 0 1 -67.1847 -55.7447 3.78777 -0.408934 -0.0563674 0.910821 -11.8953606838 -14.9883003672 3.09293968341
213 0 1 8.88739 30.5193 -11.4599 -0.0897372 -0.116989 0.989071 -12.20006441432 -14.025112860020002 1.8250484456989997
214 0 1 53.4258 -55.8289 3.32019 0.0705297 0.240749 0.968021 -11.6980817741 -12.7834922002 1.08541042606
215 0 1 52.5077 55.4954 3.14327 -0.248684 0.201316 0.947432 -13.483071685 -14.7927872311 1.30971554611
216 0 1 31.9181 -25.6781 -3.31553 -0.30651 -0.0472021 0.950696 -12.17267938377 -13.995122222460001 1.8224428386910003
217 0 1 67.5308 -29.6109 2.51404 -0.0529266 -0.0671098 0.996341 -13.0988805097 -14.5091833112 1.41030280146
218 0 1 20.6899 22.1986 -11.1265 -0.290277 -0.132375 0.947743 -12.20006441432 -14.025112860020002 1.8250484456989997
219 0 1 75.7771 60.4253 4.03381 -0.0482857 0.139043 0.989108 -5.83632429319 -8.40000541515 2.56368112196
220 0 1 19.1327 19.7116 -12.2317 -0.0151748 -0.194862 0.980713 -12.22465175504 -14.04215016519 1.8174984101420002
221 0 1 -35.4753 0.319129 0.575693 0.574256 0.0542856 0.816874 -13.1430087853 -14.7314011584 1.58839237313
222 0 1 -45.5187 52.9318 5.06254 0.0354713 -0.0818963 0.996009 -13.4885831743 -14.44083038 0.952247205727
223 0 1 51.9933 -14.8794 -0.0979652 -0.362322 -0.0306556 0.931549 -11.6937255572 -12.9864394438 1.29271388661
224 0 1 23.2336 -58.2998 -1.87804 0.305114 0.0727984 0.949529 -12.21230962716 -14.033167755120001 1.820858127975
225 0 1 -46.2547 60.3108 5.30601 0.182482 -0.0768683 0.9802 -13.6489864495 -14.972475145 1.32348869545
226 0 1 -6.29401 -15.9239 -7.46761 0.0891172 0.139022 0.986271 -12.176039217839998 -14.02471280659 1.8486735887519998
227 0 1 -70.8424 -55.6096 3.00413 -0.0433383 -0.0574192 0.997409 -12.6380262218 -14.3705830637 1.73255684191
228 0 1 -18.844 -69.6043 2.22935 0.179853 0.00660179 0.983671 -10.6751186975 -14.2244254355 3.54930673799
229 0 1 40.1742 -10.8108 -3.91615 -0.157937 0.133986 0.978317 -12.22183015573 -14.02572205574 1.8038919000229998
230 0 1 -73.0446 61.8375 4.32501 -0.0343913 0.123106 0.991797 -11.1597880749 -13.0562114375 1.89642336251
231 0 1 62.8954 30.2387 0.0598028 -0.437661 -0.22883 0.869534 -14.4180457143 -15.4386964062 1.02065069189
232 0 1 -29.7732 -63.8014 4.29962 0.0602875 -0.0530662 0.996769 -14.3425157396 -15.3602099339 1.01769419429
233 0 1 40.6897 35.4264 -3.06834 -0.341932 -0.360123 0.867983 -12.17267938377 -13.995122222460001 1.8224428386910003
234 0 1 5.82003 54.2388 -1.31688 -0.246925 -0.385296 0.889143 -12.21230962716 -14.033167755120001 1.820858127975
235 0 1 76.6576 -71.235 3.22085 0.12692 0.271014 0.954171 -6.19554324323 -7.60200895502 1.40646571179
236 0 1 36.6719 34.8481 -4.22029 -0.201203 -0.332431 0.921416 -12.22183015573 -14.02572205574 1.8038919000229998
237 0 1 -50.0696 -59.6042 4.9979 -0.0416182 0.00786094 0.999103 -12.5803971794 -13.9598082657 1.37941108632
238 0 1 0.105796 61.9627 -0.0871178 0.11076 -0.347042 0.931286 -10.9320343495 -13.6087233628 2.67668901326
239 0 1 8.34219 -43.6352 -3.85579 0.0624348 0.140258 0.988145 -12.17267938377 -13.995122222460001 1.8224428386910003
240 0 1 -23.4954 8.76577 -5.52753 0.420579 -0.0956784 0.902197 -12.2094483018 -14.02330390855 1.8138556067549998
241 0 1 24.8645 -35.2542 -3.669 -0.105429 0.280905 0.953927 -12.17267938377 -13.995122222460001 1.8224428386910003
242 0 1 -55.7253 13.669 5.48253 0.0159119 0.232403 0.972489 -12.4611816403 -14.2275530358 1.76637139545
243 0 1 45.5745 28.6387 -1.88061 -0.435754 0.0998394 0.894511 -12.21230962716 -14.033167755120001 1.820858127975
244 0 1 -25.5918 11.2636 -4.31956 0.474085 -0.105199 0.874172 -12.22183015573 -14.02572205574 1.8038919000229998
245 0 1 66.1398 33.9203 1.48752 -0.100415 -0.0412503 0.99409 -12.9976431198 -14.6746965574 1.67705343763
246 0 1 -35.8869 -71.2308 3.93488 0.179243 0.0945317 0.979253 -9.38050750804 -11.9218031497 2.5412956417
247 0 1 31.8221 -62.7517 -0.357769 -0.307826 0.180586 0.934148 -12.582438897 -13.2146543779 0.632215480893
248 0 1 -75.5719 13.2798 1.97805 -0.378016 0.203409 0.903177 -9.09282138413 -9.89015491538 0.79733353125
249 0 1 -57.214 -76.3049 4.61813 -0.0410341 0.135485 0.989929 -5.84414224972 -7.01420064414 1.17005839442
250 0 1 -15.4933 -16.5699 -4.85029 0.314393 0.000697069 0.949293 -12.22183015573 -14.02572205574 1.8038919000229998
251 0 1 -11.015 -26.5692 -4.84429 0.0368811 0.000314964 0.99932 -12.22183015573 -14.02572205574 1.8038919000229998
252 0 1 51.533 -57.9367 3.55793 -0.0581679 -0.187651 0.980512 -10.3589856492 -11.5660642965 1.20707864721
253 0 1 40.9543 7.79731 -5.85704 -0.369976 0.369318 0.85248 -12.2094483018 -14.02330390855 1.8138556067549998
254 0 1 3.96208 8.96299 -19.7017 0.710851 -0.676555 0.192262 -10.471614244771 -13.891295763299999 3.4196815185139995
255 0 1 -40.538 -55.5408 5.04779 -0.0989731 -0.0692288 0.992679 -9.97716162393 -11.3970261437 1.41986451981
256 0 1 -47.3375 25.8277 3.79453 0.195527 -0.0871254 0.976821 -13.0470106301 -14.5512598921 1.50424926194
257 0 1 -8.30664 62.0268 0.251903 0.126356 -0.149822 0.980606 -13.6785344175 -15.5600297631 1.88149534559
258 0 1 -30.0883 -26.2225 -1.20042 0.129329 -0.116683 0.984713 -12.21230962716 -14.033167755120001 1.820858127975
259 0 1 59.9593 -9.89214 0.644065 -0.231507 0.144166 0.962092 -11.9598731725 -13.9846156986 2.02474252611
260 0 1 -25.5056 32.7983 -1.68837 0.238715 0.233216 0.942669 -12.21230962716 -14.033167755120001 1.820858127975
261 0 1 -38.5256 48.4948 3.45324 0.135851 -0.175958 0.974979 -11.5338874963 -12.7907364486 1.25684895231
262 0 1 -72.3868 -50.8421 3.00755 -0.26164 -0.31333 0.912891 -11.9624617132 -14.1661295495 2.20366783632
263 0 1 0.721608 64.4947 0.0449021 0.118312 -0.353391 0.927964 -11.3520207608 -14.7410577613 3.38903700051
264 0 1 2.57302 45.3655 -5.44415 -0.194197 -0.411097 0.890666 -12.2094483018 -14.02330390855 1.8138556067549998
265 0 1 -69.9762 61.5527 4.90025 -0.305457 -0.267735 0.913791 -10.7876146856 -13.1744777468 2.38686306114
266 0 1 42.3765 -61.9099 2.12211 -0.265166 0.0638063 0.962089 -12.9292082199 -13.9166167101 0.987408490223
267 0 1 21.0378 -44.2879 -3.93358 -0.0208551 0.107565 0.993979 -12.22183015573 -14.02572205574 1.8038919000229998
268 0 1 16.2388 47.1104 -3.83595 -0.314376 -0.449648 0.836053 -12.17267938377 -13.995122222460001 1.8224428386910003
269 0 1 -20.4699 -57.1434 3.83301 0.0119504 -0.0858741 0.996234 -12.9616086031 -15.0625661975 2.10095759442
270 0 1 3.05669 -14.8628 -9.64427 0.21405 0.191561 0.957856 -12.188482332660001 -14.0242851965 1.8358028638400001
271 0 1 -59.5469 -21.5635 3.93719 0.246765 0.198594 0.948508 -12.9675705443 -14.3541130848 1.38654254052
272 0 1 -62.1559 -50.969 4.91484 -0.179104 -0.259065 0.949109 -14.5623863839 -16.1473042955 1.58491791162
273 0 1 35.8096 -48.1778 -1.38659 -0.231785 -0.163725 0.95889 -12.21230962716 -14.033167755120001 1.820858127975
274 0 1 71.4551 14.8785 0.161142 -0.302424 -0.0141866 0.953068 -13.3543274194 -14.0593387654 0.70501134603
275 0 1 35.7648 -13.1247 -4.92481 -0.263269 0.112209 0.958175 -12.2094483018 -14.02330390855 1.8138556067549998