ITEM: TIMESTEP
0
ITEM: NUMBER OF ATOMS
29440
ITEM: BOX BOUNDS pp pp pp
-100 100
-100 100
-100 100
ITEM: ATOMS id mol type x y z mux muy muz memE memEr memEa
1 0 1 -57.3682 -36.2667 0.217166 -0.205251 0.282819 0.936955 -12.1297810081875 -13.9294023680375 1.7996213598212498
2 0 1 7.29576 24.5117 -0.248967 -0.117636 -0.0847963 0.98943 -12.1268075865875 -13.927352526475 1.8005449398725
3 0 1 22.4399 22.6002 -1.1527 0.0217441 -0.308064 0.951117 -12.139906167974999 -13.940368942612501 1.80046277465875
4 0 1 -27.8686 10.64 0.415714 -0.11132 0.166148 0.979797 -12.1297810081875 -13.9294023680375 1.7996213598212498
5 0 1 27.7625 8.29403 -1.44999 -0.296691 -0.0341906 0.954361 -12.139906167974999 -13.940368942612501 1.80046277465875
6 0 1 -25.3197 -31.6487 -0.573984 0.0741596 -0.089845 0.993191 -12.1268075865875 -13.927352526475 1.8005449398725
7 0 1 46.081 -29.4677 0.910728 -0.0053799 -0.0130203 0.999901 -12.1297810081875 -13.9294023680375 1.7996213598212498
8 0 1 22.8298 44.9564 2.28985 0.132864 -0.241401 0.961287 -11.9991401357125 -13.784318857275 1.7851787215537498
9 0 1 -49.4211 -8.21221 -0.309367 -0.105745 0.17968 0.978025 -12.1268075865875 -13.927352526475 1.8005449398725
10 0 1 -60.851 -60.9853 1.75001 0.0912934 0.204405 0.97462 -12.071750988862501 -13.881333225999999 1.8095822371475
11 0 1 25.0392 38.1727 1.71118 -0.159563 -0.161565 0.973877 -12.071750988862501 -13.881333225999999 1.8095822371475
12 0 1 66.9575 10.1157 -0.880375 -0.142624 -0.0451835 0.988745 -12.139906167974999 -13.940368942612501 1.80046277465875
13 0 1 36.5499 -69.8621 3.71978 0.122091 -0.0451616 0.991491 -11.875066565325 -13.6338613219 1.7587947565675002
14 0 1 -32.2738 47.1169 1.75745 -0.0851958 -0.212891 0.973354 -12.071750988862501 -13.881333225999999 1.8095822371475
15 0 1 69.8851 -61.8411 4.78367 -0.175258 0.144659 0.973837 -11.683138023487498 -13.4698521901 1.7867141666025002
16 0 1 -5.0734 -8.97175 -47.6172 0.179256 -0.478598 0.859541 -12.05137770195 -13.9830785064 1.93170080446625
17 0 1 -67.6177 -1.71481 -1.90195 -0.0440533 0.197728 0.979267 -12.186975731975 -13.99170603715 1.80473030521
18 0 1 74.5055 27.0267 -0.645659 -0.15114 0.118639 0.981367 -12.1268075865875 -13.927352526475 1.8005449398725
19 0 1 2.91535 11.4723 -1.56456 -0.0326264 0.0872376 0.995653 -12.139906167974999 -13.940368942612501 1.80046277465875
20 0 1 32.8614 -21.4205 0.226728 0.00757595 -0.126009 0.992 -12.1297810081875 -13.9294023680375 1.7996213598212498
21 0 1 65.9343 51.2717 3.57287 -0.227013 -0.0456039 0.972823 -11.875066565325 -13.6338613219 1.7587947565675002
22 0 1 19.8305 2.80567 -1.70604 -0.202073 0.158966 0.966383 -12.139906167974999 -13.940368942612501 1.80046277465875
23 0 1 -30.5384 33.2853 1.15536 -0.0685446 -0.125109 0.989772 -12.071750988862501 -13.881333225999999 1.8095822371475
24 0 1 51.7712 -63.5712 4.77685 -0.172175 0.107835 0.979146 -11.683138023487498 -13.4698521901 1.7867141666025002
25 0 1 -40.6424 -25.8714 0.433335 -0.0162658 0.0158899 0.999741 -12.1297810081875 -13.9294023680375 1.7996213598212498
26 0 1 -1.38143 -17.5557 -26.2197 -0.815264 -0.549489 -0.182775 -10.5566754899125 -13.968688028212501 3.4120125382874997
27 0 1 -49.5698 24.8015 -0.446049 -0.0024462 -0.255024 0.966932 -12.1268075865875 -13.927352526475 1.8005449398725
28 0 1 -11.181 72.3343 0.40957 -0.0941735 -0.00841588 0.99552 -12.1297810081875 -13.9294023680375 1.7996213598212498
29 0 1 -57.43 -32.7097 -0.41189 -0.0553196 0.193155 0.979608 -12.1268075865875 -13.927352526475 1.8005449398725
30 0 1 70.482 74.881 6.27563 -0.0119303 0.209173 0.977806 -8.30743545495 -10.0765654654 1.76913001045
31 0 1 6.56493 -51.5924 -0.198216 -0.307052 -0.0618762 0.949679 -12.1268075865875 -13.927352526475 1.8005449398725
32 0 1 -65.9877 -27.4708 -1.00377 0.0274274 0.10323 0.994279 -12.139906167974999 -13.940368942612501 1.80046277465875
33 0 1 -47.2506 39.7623 0.460769 -0.100022 -0.0810358 0.99168 -12.1297810081875 -13.9294023680375 1.7996213598212498
34 0 1 -7.51602 -5.88911 -1.69941 0.199446 -0.574844 0.793584 -12.139906167974999 -13.940368942612501 1.80046277465875
35 0 1 -5.38502 25.5445 -0.332718 -0.104289 -0.353105 0.929753 -12.1268075865875 -13.927352526475 1.8005449398725
36 0 1 -18.5382 27.7999 0.657146 0.0146507 -0.246277 0.969089 -12.1297810081875 -13.9294023680375 1.7996213598212498
37 0 1 -1.50124 -20.8665 -13.205 -0.787656 0.616056 -0.00853467 -10.38730182945 -14.0137164116125 3.6264145821425
38 0 1 -70.0364 11.2777 -2.02987 0.00345092 0.199748 0.979841 -12.186975731975 -13.99170603715 1.80473030521
39 0 1 -53.825 32.6141 0.349064 -0.0344736 -0.211739 0.976718 -12.1297810081875 -13.9294023680375 1.7996213598212498
40 0 1 64.0067 15.1094 -0.580774 0.142169 0.135905 0.980468 -12.1268075865875 -13.927352526475 1.8005449398725
41 0 1 -52.2132 -70.335 2.1039 -0.0494781 0.124598 0.990973 -12.071750988862501 -13.881333225999999 1.8095822371475
42 0 1 72.8427 6.94574 -1.54687 0.0218787 0.17314 0.984654 -12.139906167974999 -13.940368942612501 1.80046277465875
43 0 1 -58.22 40.1321 1.50934 0.228241 -0.310968 0.922608 -12.071750988862501 -13.881333225999999 1.8095822371475
44 0 1 70.1132 53.7353 4.16588 -0.0748874 0.172406 0.982175 -11.683138023487498 -13.4698521901 1.7867141666025002
45 0 1 -4.86749 44.5691 1.46536 0.0371399 -0.257285 0.965622 -12.071750988862501 -13.881333225999999 1.8095822371475
46 0 1 -64.7935 -57.5226 1.8237 -0.0261468 -0.0151774 0.999543 -12.071750988862501 -13.881333225999999 1.8095822371475
47 0 1 -65.6836 55.3705 3.76655 -0.0399388 -0.398167 0.916443 -11.875066565325 -13.6338613219 1.7587947565675002
48 0 1 20.8279 48.4235 2.88429 0.0783241 -0.22081 0.972167 -11.9991401357125 -13.784318857275 1.7851787215537498
49 0 1 -6.87913 -6.71987 -33.8137 0.271795 -0.687361 -0.673545 -12.2121482827125 -14.22386183925 2.0117135565625
50 0 1 -19.0763 32.0304 1.16252 0.173214 -0.227375 0.958278 -12.071750988862501 -13.881333225999999 1.8095822371475
51 0 1 -69.2229 32.4484 0.692598 -0.252527 -0.169861 0.952564 -12.1297810081875 -13.9294023680375 1.7996213598212498
52 0 1 -24.7587 24.7882 0.694732 0.192069 -0.0466844 0.98027 -12.1297810081875 -13.9294023680375 1.7996213598212498
53 0 1 -11.601 -19.4687 -38.1746 0.814465 0.461463 -0.351708 -12.109424269075001 -14.0988878526875 1.98946358360375
54 0 1 -37.1867 65.0105 3.97206 -0.0560782 0.0439643 0.997458 -11.875066565325 -13.6338613219 1.7587947565675002
55 0 1 54.4259 -29.432 1.07327 0.167087 0.235548 0.957392 -12.1297810081875 -13.9294023680375 1.7996213598212498
56 0 1 20.6935 -16.6735 -0.64695 -0.216548 0.126885 0.967991 -12.1268075865875 -13.927352526475 1.8005449398725
57 0 1 18.0456 -25.0485 -0.416132 -0.119037 0.0549592 0.991368 -12.1268075865875 -13.927352526475 1.8005449398725
58 0 1 61.6079 -25.3451 -0.172936 0.171376 0.0669275 0.98293 -12.1268075865875 -13.927352526475 1.8005449398725
59 0 1 55.5978 69.7506 5.88761 0.0248733 -0.16187 0.986499 -11.348469547525 -13.332912625287499 1.98444307773625
60 0 1 55.61 11.9536 0.102626 0.0187475 -0.0616709 0.99792 -12.1268075865875 -13.927352526475 1.8005449398725
61 0 1 -57.3716 58.1198 4.23598 0.0959188 -0.033007 0.994842 -11.683138023487498 -13.4698521901 1.7867141666025002
62 0 1 -21.4596 64.7232 2.35056 0.169236 0.0517307 0.984217 -11.9991401357125 -13.784318857275 1.7851787215537498
63 0 1 13.3349 52.0737 2.86209 -0.0594714 0.157304 0.985758 -11.9991401357125 -13.784318857275 1.7851787215537498
64 0 1 72.0719 -27.378 -0.39514 0.149046 -0.00581105 0.988813 -12.1268075865875 -13.927352526475 1.8005449398725
65 0 1 38.8284 0.543722 0.212031 -0.101402 0.0546179 0.993345 -12.1297810081875 -13.9294023680375 1.7996213598212498
66 0 1 -7.79974 -8.36454 -32.5467 0.36526 -0.638395 -0.677523 -12.0227809753125 -14.12286332735 2.1000823520162504
67 0 1 -48.0805 -7.95296 -0.209649 0.0132146 -0.0638282 0.997873 -12.1268075865875 -13.927352526475 1.8005449398725
68 0 1 -63.2418 67.2736 4.55137 0.331172 0.107924 0.937378 -11.683138023487498 -13.4698521901 1.7867141666025002
69 0 1 -25.7157 -45.7087 -1.21808 0.113833 -0.256048 0.959938 -12.139906167974999 -13.940368942612501 1.80046277465875
70 0 1 50.3582 -2.07444 0.267572 -0.0937227 -0.367836 0.925156 -12.1297810081875 -13.9294023680375 1.7996213598212498
71 0 1 -12.5317 64.8143 1.45855 -0.0152902 0.131527 0.991195 -12.071750988862501 -13.881333225999999 1.8095822371475
72 0 1 28.4488 73.5105 4.13525 -0.104085 -0.0979242 0.989736 -11.875066565325 -13.6338613219 1.7587947565675002
73 0 1 42.9123 65.5441 3.62993 0.3113 -0.0799725 0.946941 -11.875066565325 -13.6338613219 1.7587947565675002
74 0 1 75.4399 -29.5443 -0.44121 -0.0128129 0.201852 0.979332 -12.1268075865875 -13.927352526475 1.8005449398725
75 0 1 18.4287 45.9005 2.26078 -0.0831916 -0.119898 0.989295 -11.9991401357125 -13.784318857275 1.7851787215537498
76 0 1 72.7926 46.2595 3.59696 0.0914015 0.0496518 0.994576 -11.875066565325 -13.6338613219 1.7587947565675002
77 0 1 -35.7101 30.0009 0.450595 0.00610074 -0.126379 0.991963 -12.1297810081875 -13.9294023680375 1.7996213598212498
78 0 1 62.9086 -65.6282 5.27439 -0.00254795 0.064877 0.99789 -11.348469547525 -13.332912625287499 1.98444307773625
79 0 1 -7.04103 42.82 0.892501 -0.0647949 -0.110603 0.99175 -12.1297810081875 -13.9294023680375 1.7996213598212498
80 0 1 -8.23585 -16.4862 -30.7184 0.641604 0.0836854 -0.762457 -11.212567789175 -14.1581924883 2.945624699135
81 0 1 45.4214 40.6441 2.33456 0.024743 -0.164593 0.986051 -11.9991401357125 -13.784318857275 1.7851787215537498
82 0 1 44.7069 -52.3283 3.05626 0.031013 -0.0113922 0.999454 -11.9991401357125 -13.784318857275 1.7851787215537498
83 0 1 44.7725 65.4299 3.52329 0.136689 -0.148684 0.979392 -11.875066565325 -13.6338613219 1.7587947565675002
84 0 1 2.76461 15.6027 -1.58037 0.0945125 -0.260284 0.960895 -12.139906167974999 -13.940368942612501 1.80046277465875
85 0 1 -51.2612 -31.3709 -0.0408118 -0.206542 0.080575 0.975114 -12.1268075865875 -13.927352526475 1.8005449398725
86 0 1 -51.1154 -71.4193 2.04248 -0.00346087 0.110462 0.993874 -12.071750988862501 -13.881333225999999 1.8095822371475
87 0 1 18.9242 50.2776 3.03515 -0.20619 0.0126858 0.97843 -11.9991401357125 -13.784318857275 1.7851787215537498
88 0 1 -0.0959246 49.1447 2.20891 -0.0913354 -0.273105 0.957639 -11.9991401357125 -13.784318857275 1.7851787215537498
89 0 1 40.8131 57.6014 3.32511 0.0278672 0.0945581 0.995129 -11.875066565325 -13.6338613219 1.7587947565675002
90 0 1 38.1054 -52.758 2.7313 -0.0744629 0.261525 0.96232 -11.9991401357125 -13.784318857275 1.7851787215537498
91 0 1 -48.2929 -42.7392 1.64139 0.0768014 0.0612155 0.995165 -12.071750988862501 -13.881333225999999 1.8095822371475
92 0 1 -37.4209 12.9416 0.000997279 -0.0723739 0.0789588 0.994247 -12.1268075865875 -13.927352526475 1.8005449398725
93 0 1 -14.1393 -53.3715 -2.09106 0.0836515 0.175639 0.980894 -12.186975731975 -13.99170603715 1.80473030521
94 0 1 -10.5317 56.4623 2.55039 -0.187995 0.103475 0.976704 -11.9991401357125 -13.784318857275 1.7851787215537498
95 0 1 -19.724 14.515 -0.169349 -0.0241904 0.0282895 0.999307 -12.1268075865875 -13.927352526475 1.8005449398725
96 0 1 45.7043 48.7761 2.94034 0.134952 0.0401663 0.990038 -11.9991401357125 -13.784318857275 1.7851787215537498
97 0 1 -7.01953 1.53609 -1.68811 0.105985 0.197194 0.974619 -12.139906167974999 -13.940368942612501 1.80046277465875
98 0 1 54.6494 40.9821 2.7253 -0.10164 -0.0646039 0.992721 -11.9991401357125 -13.784318857275 1.7851787215537498
99 0 1 44.1998 52.8199 2.13004 -0.134513 0.0183091 0.990743 -12.071750988862501 -13.881333225999999 1.8095822371475
100 0 1 -25.176 -56.857 -0.531137 -0.0417942 0.141881 0.989001 -12.1268075865875 -13.927352526475 1.8005449398725
101 0 1 -15.4172 31.754 0.278087 0.0676395 0.0200824 0.997508 -12.1297810081875 -13.9294023680375 1.7996213598212498
102 0 1 -9.42718 -19.0845 -33.8057 0.703262 0.615849 -0.355179 -12.2121482827125 -14.22386183925 2.0117135565625
103 0 1 -47.4359 46.566 1.617 -0.0111356 -0.247839 0.968737 -12.071750988862501 -13.881333225999999 1.8095822371475
104 0 1 7.77848 56.3514 2.29028 -0.0752102 0.158151 0.984546 -11.9991401357125 -13.784318857275 1.7851787215537498
105 0 1 -71.2353 -41.0809 1.60238 0.180507 0.184848 0.966048 -12.071750988862501 -13.881333225999999 1.8095822371475
106 0 1 30.8858 34.5831 1.08116 0.0141126 -0.112815 0.993516 -12.1297810081875 -13.9294023680375 1.7996213598212498
107 0 1 -39.0886 -65.9914 1.52856 0.0219676 0.200306 0.979487 -12.071750988862501 -13.881333225999999 1.8095822371475
108 0 1 67.1099 -60.624 4.54436 0.0642755 0.270279 0.960634 -11.683138023487498 -13.4698521901 1.7867141666025002
109 0 1 -60.175 -23.1074 -1.30304 -0.176191 0.0790955 0.981173 -12.139906167974999 -13.940368942612501 1.80046277465875
110 0 1 30.2832 64.8685 3.97934 0.0284317 -0.137664 0.990071 -11.875066565325 -13.6338613219 1.7587947565675002
111 0 1 54.9308 -23.7697 0.550443 0.14755 -0.127365 0.98082 -12.1297810081875 -13.9294023680375 1.7996213598212498
112 0 1 69.5391 -71.5097 5.73973 -0.00171184 0.296874 0.954915 -11.348469547525 -13.332912625287499 1.98444307773625
113 0 1 -53.6426 61.2798 4.36812 0.00602226 -0.0200541 0.999781 -11.683138023487498 -13.4698521901 1.7867141666025002
114 0 1 63.6638 68.0704 6.11145 0.0306203 -0.0133963 0.999441 -11.348469547525 -13.332912625287499 1.98444307773625
115 0 1 -28.7887 -40.0156 -0.596251 0.16138 -0.00350499 0.986886 -12.1268075865875 -13.927352526475 1.8005449398725
116 0 1 -28.4226 24.5843 0.679856 -0.00926677 0.0807787 0.996689 -12.1297810081875 -13.9294023680375 1.7996213598212498
117 0 1 40.8751 -8.39649 -0.00363298 0.175289 -0.000459724 0.984517 -12.1268075865875 -13.927352526475 1.8005449398725
118 0 1 -66.4204 50.2758 3.37836 -0.0683771 -0.118235 0.990629 -11.875066565325 -13.6338613219 1.7587947565675002
119 0 1 -16.1748 -40.1194 -2.40211 0.164878 0.00777531 0.986283 -12.186975731975 -13.99170603715 1.80473030521
120 0 1 -11.2083 -43.5291 -2.64683 0.0581619 -0.0593499 0.996541 -12.186975731975 -13.99170603715 1.80473030521
121 0 1 -11.4067 -8.69955 -41.1989 0.734652 -0.656419 0.171467 -12.0127122890375 -14.00173565275 1.98902336371625
122 0 1 43.2321 -53.8288 2.98144 -0.312623 -0.0915304 0.945457 -11.9991401357125 -13.784318857275 1.7851787215537498
123 0 1 53.1254 52.6552 3.1941 -0.182658 0.108755 0.977143 -11.875066565325 -13.6338613219 1.7587947565675002
124 0 1 -22.8601 48.9033 1.77564 -0.135933 -0.0108202 0.990659 -12.071750988862501 -13.881333225999999 1.8095822371475
125 0 1 53.8306 27.3352 0.727845 -0.0771139 -0.198494 0.977064 -12.1297810081875 -13.9294023680375 1.7996213598212498
126 0 1 -8.6152 -62.7778 -0.583407 -0.0652859 -0.0732234 0.995176 -12.1268075865875 -13.927352526475 1.8005449398725
127 0 1 -64.1613 -1.45364 -2.30498 -0.142882 -0.280296 0.94922 -12.186975731975 -13.99170603715 1.80473030521
128 0 1 -16.2026 55.4466 1.9393 -0.137209 -0.060875 0.98867 -12.071750988862501 -13.881333225999999 1.8095822371475
129 0 1 -51.9784 -39.773 1.34564 -0.153888 0.254392 0.954779 -12.071750988862501 -13.881333225999999 1.8095822371475
130 0 1 -74.3667 -45.5901 2.89351 0.101579 0.104883 0.989283 -11.9991401357125 -13.784318857275 1.7851787215537498
131 0 1 -9.18695 44.5004 1.13455 0.073503 -0.0876453 0.993436 -12.1297810081875 -13.9294023680375 1.7996213598212498
132 0 1 -53.8146 -43.9101 2.07783 -0.149891 0.228319 0.961979 -12.071750988862501 -13.881333225999999 1.8095822371475
133 0 1 -47.828 -63.0903 1.22907 -0.0512308 -0.110777 0.992524 -12.071750988862501 -13.881333225999999 1.8095822371475
134 0 1 -60.2326 -0.7927 -1.94069 0.077718 -0.110224 0.990864 -12.186975731975 -13.99170603715 1.80473030521
135 0 1 18.8834 -73.8552 1.534 -0.0567134 0.0141566 0.99829 -12.071750988862501 -13.881333225999999 1.8095822371475
136 0 1 -28.2044 -11.8121 0.0589354 0.162791 0.1413 0.97649 -12.1268075865875 -13.927352526475 1.8005449398725
137 0 1 -19.7774 33.032 1.05474 0.258702 -0.0138165 0.965858 -12.1297810081875 -13.9294023680375 1.7996213598212498
138 0 1 26.5483 20.37 -1.20585 -0.146761 0.0120791 0.989098 -12.139906167974999 -13.940368942612501 1.80046277465875
139 0 1 -56.1057 7.10189 -1.39408 -0.00783511 -0.0880807 0.996083 -12.139906167974999 -13.940368942612501 1.80046277465875
140 0 1 -6.95332 -21.4693 -45.7082 0.421968 0.704184 0.571023 -12.0358257722625 -14.0259269362125 1.9901011639525001
141 0 1 -46.9458 30.4341 -0.713262 0.027341 -0.281828 0.959075 -12.1268075865875 -13.927352526475 1.8005449398725
142 0 1 60.4949 2.65365 -0.96943 0.111278 0.119168 0.986619 -12.139906167974999 -13.940368942612501 1.80046277465875
143 0 1 15.6069 -22.217 -0.951467 -0.231185 -0.0206972 0.97269 -12.139906167974999 -13.940368942612501 1.80046277465875
144 0 1 44.4893 51.0118 2.38455 -0.114306 0.149696 0.982102 -11.9991401357125 -13.784318857275 1.7851787215537498
145 0 1 -5.87834 -21.033 -11.0136 0.824102 0.565102 0.038937 -9.90297489536125 -13.8488934746875 3.9459185793312503
146 0 1 -5.39875 -20.8488 -15.9148 0.743147 0.612038 0.270447 -10.75931654375 -14.1199968707125 3.3606803269725
147 0 1 -14.8215 -55.8773 -1.53656 0.095046 0.348166 0.932602 -12.139906167974999 -13.940368942612501 1.80046277465875
148 0 1 57.9514 9.78742 -0.387507 0.119967 -0.197007 0.973034 -12.1268075865875 -13.927352526475 1.8005449398725
149 0 1 -56.4789 73.3677 3.10021 0.0309794 0.259458 0.965257 -11.9991401357125 -13.784318857275 1.7851787215537498
150 0 1 13.6881 32.7478 1.43154 -0.143987 -0.226573 0.963292 -12.071750988862501 -13.881333225999999 1.8095822371475
151 0 1 45.1834 37.549 1.54966 0.0586963 -0.301602 0.951625 -12.071750988862501 -13.881333225999999 1.8095822371475
152 0 1 64.8839 69.2568 6.35127 -0.0775242 0.0452109 0.995965 -13.2252527858 -15.2747089867 2.04945620092
153 0 1 30.4441 11.813 -1.05835 -0.272802 0.173056 0.946378 -12.139906167974999 -13.940368942612501 1.80046277465875
154 0 1 42.3446 -55.5016 2.96211 -0.118535 -0.164812 0.979176 -11.9991401357125 -13.784318857275 1.7851787215537498
155 0 1 -51.1513 -74.8644 2.22824 -0.0236249 0.389473 0.920735 -11.9991401357125 -13.784318857275 1.7851787215537498
156 0 1 70.3207 -71.5672 5.49566 0.272925 0.221749 0.93613 -11.348469547525 -13.332912625287499 1.98444307773625
157 0 1 53.0704 73.9392 5.74125 -0.282834 -0.0835851 0.95552 -11.348469547525 -13.332912625287499 1.98444307773625
158 0 1 -3.71331 -20.6625 -31.3361 -0.0391116 0.987756 -0.151026 -11.722723025775 -14.13560219135 2.4128791655475004
159 0 1 -40.583 5.64744 0.169185 -0.0519429 0.0421807 0.997759 -12.1297810081875 -13.9294023680375 1.7996213598212498
160 0 1 13.9275 -9.83307 -1.33671 0.040406 -0.0910515 0.995026 -12.139906167974999 -13.940368942612501 1.80046277465875
161 0 1 -25.7082 -70.536 1.44896 0.189382 0.123351 0.974125 -12.071750988862501 -13.881333225999999 1.8095822371475
162 0 1 15.0403 -43.7704 0.198658 -0.189428 0.124657 0.97395 -12.1297810081875 -13.9294023680375 1.7996213598212498
163 0 1 65.0718 -61.8311 4.84584 0.138118 0.205437 0.968875 -11.683138023487498 -13.4698521901 1.7867141666025002
164 0 1 -59.1171 -43.0993 1.67216 0.017241 0.39956 0.916545 -12.071750988862501 -13.881333225999999 1.8095822371475
165 0 1 -47.3345 25.9338 0.0637105 -0.114189 0.031834 0.992949 -12.1268075865875 -13.927352526475 1.8005449398725
166 0 1 45.1219 63.8513 3.29039 -0.099829 -0.0456974 0.993955 -11.875066565325 -13.6338613219 1.7587947565675002
167 0 1 -27.8204 62.6594 3.00101 0.321039 -0.139318 0.936763 -11.9991401357125 -13.784318857275 1.7851787215537498
168 0 1 60.1216 -27.0247 -0.0216907 0.0335219 0.226637 0.973402 -12.1268075865875 -13.927352526475 1.8005449398725
169 0 1 -58.6113 49.243 2.6255 -0.0680644 -0.123506 0.990007 -11.9991401357125 -13.784318857275 1.7851787215537498
170 0 1 -0.259712 22.8433 -0.455831 0.160389 -0.236495 0.958303 -12.1268075865875 -13.927352526475 1.8005449398725
171 0 1 24.8612 68.5385 3.43899 -0.30003 -0.239477 0.923381 -11.875066565325 -13.6338613219 1.7587947565675002
172 0 1 -29.6605 23.6119 0.52618 -0.160707 -0.103887 0.98152 -12.1297810081875 -13.9294023680375 1.7996213598212498
173 0 1 -12.5578 55.3334 2.53019 -0.00923407 0.223176 0.974734 -11.9991401357125 -13.784318857275 1.7851787215537498
174 0 1 -50.3385 45.5024 1.5729 0.299522 -0.329747 0.895295 -12.071750988862501 -13.881333225999999 1.8095822371475
175 0 1 66.0929 31.4502 0.527537 -0.0504751 -0.211872 0.975993 -12.1297810081875 -13.9294023680375 1.7996213598212498
176 0 1 -63.9789 -11.9014 -1.83884 -0.0678521 -0.0488768 0.996497 -12.139906167974999 -13.940368942612501 1.80046277465875
177 0 1 -74.0532 46.6918 3.10665 0.205779 -0.0776002 0.975517 -11.9991401357125 -13.784318857275 1.7851787215537498
178 0 1 58.0009 65.6653 5.25754 -0.121222 -0.21749 0.968506 -11.348469547525 -13.332912625287499 1.98444307773625
179 0 1 63.5631 38.7202 2.10063 0.090656 -0.12931 0.987451 -12.071750988862501 -13.881333225999999 1.8095822371475
180 0 1 -33.8812 50.0384 2.26229 -0.164365 -0.409165 0.897535 -11.9991401357125 -13.784318857275 1.7851787215537498
181 0 1 -34.9141 18.891 0.153615 0.240232 0.0933365 0.966218 -12.1297810081875 -13.9294023680375 1.7996213598212498
182 0 1 43.1292 37.9987 1.53131 -0.125246 0.0529832 0.99071 -12.071750988862501 -13.881333225999999 1.8095822371475
183 0 1 -1.20232 -19.8708 -18.7747 -0.92171 0.387723 0.0109799 -10.864713240412499 -14.371094429025 3.5063811885975
184 0 1 -21.2284 58.8092 2.14589 -0.0788238 -0.0580856 0.995195 -12.071750988862501 -13.881333225999999 1.8095822371475
185 0 1 -55.5439 10.0916 -1.50467 -0.132805 -0.0742329 0.988358 -12.139906167974999 -13.940368942612501 1.80046277465875
186 0 1 -43.8414 -35.5325 0.412311 0.251195 0.116165 0.960941 -12.1297810081875 -13.9294023680375 1.7996213598212498
187 0 1 15.8648 -17.7305 -1.27566 -0.195937 -0.0931011 0.976187 -12.139906167974999 -13.940368942612501 1.80046277465875
188 0 1 57.917 70.1288 5.89199 -0.168204 -0.267304 0.948818 -11.348469547525 -13.332912625287499 1.98444307773625
189 0 1 -58.9805 63.2588 4.3924 0.0862518 -0.0825142 0.99285 -11.683138023487498 -13.4698521901 1.7867141666025002
190 0 1 46.9725 -34.0954 1.53397 -0.0877792 0.144767 0.985565 -12.071750988862501 -13.881333225999999 1.8095822371475
191 0 1 35.3134 31.1413 1.0068 0.0248834 0.0203699 0.999483 -12.1297810081875 -13.9294023680375 1.7996213598212498
192 0 1 -70.8661 6.4698 -1.95086 0.182331 -0.0640958 0.981146 -12.186975731975 -13.99170603715 1.80473030521
193 0 1 24.9117 -10.27 -0.784605 -0.0699602 -0.0113049 0.997486 -12.1268075865875 -13.927352526475 1.8005449398725
194 0 1 -66.3761 -67.2629 3.061 0.300408 0.0632218 0.951713 -11.9991401357125 -13.784318857275 1.7851787215537498
195 0 1 2.1216 -72.2777 0.145804 -0.216624 0.113706 0.969611 -12.1268075865875 -13.927352526475 1.8005449398725
196 0 1 27.4693 37.9391 1.76161 0.109467 -0.0108988 0.993931 -12.071750988862501 -13.881333225999999 1.8095822371475
197 0 1 39.0769 -25.1175 0.61354 0.215951 0.192647 0.957211 -12.1297810081875 -13.9294023680375 1.7996213598212498
198 0 1 26.7576 -7.14464 -0.973013 0.133295 -0.11797 0.98403 -12.139906167974999 -13.940368942612501 1.80046277465875
199 0 1 61.2687 39.8401 2.36729 0.142827 -0.185881 0.972136 -11.9991401357125 -13.784318857275 1.7851787215537498
200 0 1 -32.896 8.69254 -0.13541 -0.242044 -0.250508 0.937369 -12.1268075865875 -13.927352526475 1.8005449398725
201 0 1 -67.9245 -8.08226 -1.86003 -0.126056 0.0678021 0.989703 -12.186975731975 -13.99170603715 1.80473030521
202 0 1 -28.7342 53.2406 2.61424 0.288102 -0.167972 0.942753 -11.9991401357125 -13.784318857275 1.7851787215537498
203 0 1 71.4477 66.2895 6.06596 -0.216783 -0.213 0.9527 -11.348469547525 -13.332912625287499 1.98444307773625
204 0 1 -16.7761 -66.2391 -0.306294 0.0701642 -0.0100402 0.997485 -12.1268075865875 -13.927352526475 1.8005449398725
205 0 1 25.6673 20.9918 -1.28105 -0.127929 0.021002 0.991561 -12.139906167974999 -13.940368942612501 1.80046277465875
206 0 1 -42.5003 -65.7941 1.3894 0.19575 -0.016329 0.980518 -12.071750988862501 -13.881333225999999 1.8095822371475
207 0 1 -35.9393 39.0995 0.612758 0.170568 -0.131183 0.976574 -12.1297810081875 -13.9294023680375 1.7996213598212498
208 0 1 -65.4324 -12.677 -2.05502 -0.143047 -0.198868 0.96953 -12.186975731975 -13.99170603715 1.80473030521
209 0 1 59.823 75.0129 6.30354 -0.248472 0.177637 0.952212 -7.87807073573 -9.46643394535 1.58836320962
210 0 1 1.17741 40.0536 1.09521 -0.161369 -0.243568 0.956365 -12.1297810081875 -13.9294023680375 1.7996213598212498
211 0 1 33.2455 37.9558 1.38331 -0.112827 -0.0722977 0.990981 -12.071750988862501 -13.881333225999999 1.8095822371475
212 0 1 -3.05566 -14.8638 -28.4252 0.0957009 -0.611777 -0.78522 -10.066424781264999 -14.053867597124999 3.98744281585
213 0 1 -10.2011 58.1396 2.36549 -0.146784 0.143575 0.978693 -11.9991401357125 -13.784318857275 1.7851787215537498
214 0 1 -14.146 -66.4887 -0.715451 0.177426 -0.0890539 0.980097 -12.1268075865875 -13.927352526475 1.8005449398725
215 0 1 54.7962 -33.768 1.69622 0.0505611 0.259859 0.964322 -12.071750988862501 -13.881333225999999 1.8095822371475
216 0 1 -27.5586 -58.017 -0.0503014 -0.0221521 0.131548 0.991062 -12.1268075865875 -13.927352526475 1.8005449398725
217 0 1 7.38677 23.7274 -0.251764 -0.158846 -0.0400491 0.986491 -12.1268075865875 -13.927352526475 1.8005449398725
218 0 1 -4.67286 49.9517 2.31852 -0.148575 0.0355616 0.988262 -11.9991401357125 -13.784318857275 1.7851787215537498
219 0 1 -8.87622 -13.0531 -47.2583 0.629164 -0.0975797 0.771123 -12.05137770195 -13.9830785064 1.93170080446625
220 0 1 5.98345 37.7467 1.55362 -0.217902 -0.18807 0.957679 -12.071750988862501 -13.881333225999999 1.8095822371475
221 0 1 61.9401 -59.6195 4.82237 -0.226685 0.0716155 0.971332 -11.683138023487498 -13.4698521901 1.7867141666025002
222 0 1 -12.9166 -10.4516 -2.02317 0.328352 -0.0972428 0.939536 -12.186975731975 -13.99170603715 1.80473030521
223 0 1 25.6572 -4.8638 -0.754516 0.0265971 0.0891068 0.995667 -12.1268075865875 -13.927352526475 1.8005449398725
224 0 1 -5.30895 -5.03219 -42.534 0.0689735 -0.97594 0.206841 -12.0076915210875 -14.003704023787499 1.99601250270625
225 0 1 -4.34689 -15.4097 -48.71 0.104169 0.102325 0.989282 -12.0849140406875 -14.075646936750001 1.99073289605875
226 0 1 -35.8599 10.4427 -0.107927 -0.0023469 -0.0775809 0.996983 -12.1268075865875 -13.927352526475 1.8005449398725
227 0 1 -2.26284 2.55975 -1.57788 0.258425 -0.126465 0.957718 -12.139906167974999 -13.940368942612501 1.80046277465875
228 0 1 -5.44447 -20.2604 -27.7453 0.596693 0.790732 0.136751 -10.4163458451875 -14.076111569912499 3.6597657247099997
229 0 1 -27.0556 56.4743 2.48795 0.0939763 -0.0285962 0.995164 -11.9991401357125 -13.784318857275 1.7851787215537498
230 0 1 -45.766 -68.7028 1.55911 0.191885 0.124335 0.97351 -12.071750988862501 -13.881333225999999 1.8095822371475
231 0 1 63.8682 -72.8975 6.11623 0.197186 0.179342 0.963823 -11.348469547525 -13.332912625287499 1.98444307773625
232 0 1 -16.2948 -63.2721 -0.710131 0.0873069 0.0806172 0.992914 -12.1268075865875 -13.927352526475 1.8005449398725
233 0 1 -53.8825 21.5133 -0.862478 0.00763004 -0.182283 0.983217 -12.139906167974999 -13.940368942612501 1.80046277465875
234 0 1 62.0104 17.8347 -0.636328 0.269248 -0.0900184 0.958854 -12.1268075865875 -13.927352526475 1.8005449398725
235 0 1 41.6792 59.8025 3.42792 -0.0531435 -0.353906 0.93377 -11.875066565325 -13.6338613219 1.7587947565675002
236 0 1 1.05718 -57.9215 -0.795561 -0.101484 0.0486413 0.993647 -12.1268075865875 -13.927352526475 1.8005449398725
237 0 1 50.3571 25.0287 0.35658 -0.100539 -0.130808 0.986297 -12.1297810081875 -13.9294023680375 1.7996213598212498
238 0 1 -33.756 -31.0039 0.411972 0.133721 0.0210823 0.990795 -12.1297810081875 -13.9294023680375 1.7996213598212498
239 0 1 -24.5106 -43.2544 -1.66498 0.138061 -0.0534029 0.988983 -12.139906167974999 -13.940368942612501 1.80046277465875
240 0 1 -41.5105 51.4339 3.02106 0.0254867 -0.0596577 0.997893 -11.9991401357125 -13.784318857275 1.7851787215537498
241 0 1 -15.1425 60.0677 2.01018 0.0622784 0.0173605 0.997908 -12.071750988862501 -13.881333225999999 1.8095822371475
242 0 1 -48.5707 -36.5221 0.918114 -0.124215 -0.189287 0.974033 -12.1297810081875 -13.9294023680375 1.7996213598212498
243 0 1 19.9941 -51.2333 0.77458 0.0664433 0.00136311 0.997789 -12.1297810081875 -13.9294023680375 1.7996213598212498
244 0 1 -49.5717 -36.8303 0.836043 -0.0585631 0.0838979 0.994752 -12.1297810081875 -13.9294023680375 1.7996213598212498
245 0 1 0.807566 48.5654 2.24839 0.104867 -0.0428577 0.993562 -11.9991401357125 -13.784318857275 1.7851787215537498
246 0 1 -65.601 -30.8116 -0.515194 0.252455 0.178335 0.951033 -12.1268075865875 -13.927352526475 1.8005449398725
247 0 1 -75.3606 71.425 6.25168 0.0732376 0.110013 0.991228 -8.26731026708 -9.42218139895 1.15487113187
248 0 1 -33.4922 -67.5121 1.80732 0.111005 0.0375738 0.993109 -12.071750988862501 -13.881333225999999 1.8095822371475
249 0 1 -41.8076 -75.3391 3.23621 0.100632 0.10585 0.989277 -11.875066565325 -13.6338613219 1.7587947565675002
250 0 1 -60.3219 -5.3638 -1.54773 -0.056022 0.0311188 0.997944 -12.139906167974999 -13.940368942612501 1.80046277465875
251 0 1 18.8158 46.5709 2.5145 0.207181 -0.24052 0.948275 -11.9991401357125 -13.784318857275 1.7851787215537498
252 0 1 24.5074 32.8514 1.03464 0.0942369 0.0521488 0.994183 -12.1297810081875 -13.9294023680375 1.7996213598212498
253 0 1 -56.5955 53.7745 3.43179 0.0314218 -0.0372097 0.998813 -11.875066565325 -13.6338613219 1.7587947565675002
254 0 1 44.469 -38.1126 2.79665 -0.135841 0.303271 0.943172 -11.9991401357125 -13.784318857275 1.7851787215537498
255 0 1 -33.68 46.6449 1.55786 -0.173781 -0.236183 0.956043 -12.071750988862501 -13.881333225999999 1.8095822371475
256 0 1 2.02644 -21.5191 -3.98668 -0.240081 -0.0564662 0.969109 -11.9695070773625 -13.782094536299999 1.81258745891
257 0 1 -2.36306 -21.815 -13.7153 -0.605515 0.793398 0.0622264 -10.38730182945 -14.0137164116125 3.6264145821425
258 0 1 60.3927 51.2653 3.24501 0.00816041 -0.111532 0.993727 -11.875066565325 -13.6338613219 1.7587947565675002
259 0 1 -36.2024 -57.5789 0.743516 -0.0676308 0.190235 0.979406 -12.1297810081875 -13.9294023680375 1.7996213598212498