ITEM: TIMESTEP
0
ITEM: NUMBER OF ATOMS
29440
ITEM: BOX BOUNDS pp pp pp
-100 100
-100 100
-100 100
ITEM: ATOMS id mol type x y z mux muy muz memE memEr memEa memEra memEf
1 0 1 -14.9373 -67.4575 1.81245 0.0844799 0.00173879 0.996424 -11.999136374099999 -13.798164620040001 1.7990282459690001 -11.999136374071002 0.0
2 0 1 -58.367 64.2147 5.61293 0.127346 -0.0499754 0.990599 -12.05585320589 -13.867982023550002 1.8121288176619998 -12.055853205888003 0.0
3 0 1 -66.9244 -48.136 5.06872 0.0468457 0.0667434 0.99667 -12.00821020999 -13.800706167909999 1.792495957912 -12.008210209998 0.0
4 0 1 9.40487 4.91274 -18.6915 -0.825403 0.49099 0.278639 -11.82034863112 -13.95953885225 3.4443933714850004 -10.515145480765 -1.3052031503583
5 0 1 -35.3182 65.3314 3.32682 -0.101967 0.105842 0.989141 -11.9483148206 -13.7198276394 1.7715128188200002 -11.94831482058 0.0
6 0 1 -29.6887 17.2189 -2.75129 0.342219 -0.0957834 0.934726 -12.17485583196 -14.00135972944 1.8265038974580001 -12.174855831982 0.0
7 0 1 -24.7547 16.3952 -3.96126 0.401021 -0.111625 0.909243 -12.21768646317 -14.030884781820001 1.813198318625 -12.217686463195001 0.0
8 0 1 -40.3042 61.8991 4.88495 0.178409 -0.000166873 0.983956 -12.00821020999 -13.800706167909999 1.792495957912 -12.008210209998 0.0
9 0 1 -15.683 -57.1745 3.04659 0.313121 0.0394011 0.948896 -11.99535995006 -13.799648790320001 1.8042888402510002 -11.995359950069 0.0
10 0 1 -45.075 -10.9251 1.87571 0.26977 0.0922303 0.958498 -11.999136374099999 -13.798164620040001 1.7990282459690001 -11.999136374071002 0.0
11 0 1 22.4336 28.4652 -9.41175 -0.224151 -0.163875 0.960678 -12.18562164983 -14.00390875603 1.8182871062050001 -12.185621649825 0.0
12 0 1 -4.74289 44.3269 -5.69567 0.0901878 -0.502528 0.859844 -12.21438860764 -14.02149776956 1.8071091618939998 -12.214388607666 0.0
13 0 1 -65.9468 68.1861 5.35023 -0.34932 0.205959 0.914088 -12.05585320589 -13.867982023550002 1.8121288176619998 -12.055853205888003 0.0
14 0 1 46.3035 66.9679 1.91025 -0.147075 -0.111919 0.982773 -11.999136374099999 -13.798164620040001 1.7990282459690001 -11.999136374071002 0.0
15 0 1 -40.0048 -10.542 1.15153 -0.0158525 -0.25916 0.965704 -11.999136374099999 -13.798164620040001 1.7990282459690001 -11.999136374071002 0.0
16 0 1 37.8056 -56.4177 0.435377 -0.27164 0.394456 0.877848 -12.088904241849999 -13.900483271799999 1.811579029952 -12.088904241847999 0.0
17 0 1 -54.7776 -60.6297 4.62462 0.144681 -0.0473033 0.988347 -12.00821020999 -13.800706167909999 1.792495957912 -12.008210209998 0.0
18 0 1 56.0063 5.23096 -1.41909 -0.04574 0.0560918 0.997377 -12.22133645442 -14.03321033501 1.811873880585 -12.221336454425 0.0
19 0 1 -33.7297 -9.34608 0.00452626 0.308543 -0.0329312 0.95064 -12.20240658651 -14.019866186929999 1.8174596004189998 -12.202406586511 0.0
20 0 1 69.3406 41.7123 2.80534 -0.284498 0.0430185 0.957711 -11.99535995006 -13.799648790320001 1.8042888402510002 -11.995359950069 0.0
21 0 1 38.662 43.9238 -0.673063 -0.139147 -0.438418 0.887935 -12.20240658651 -14.019866186929999 1.8174596004189998 -12.202406586511 0.0
22 0 1 13.296 -72.4825 1.5255 0.00253551 0.0367304 0.999322 -11.999136374099999 -13.798164620040001 1.7990282459690001 -11.999136374071002 0.0
23 0 1 -56.8732 -38.4305 5.21307 0.20146 0.00233074 0.979494 -12.05585320589 -13.867982023550002 1.8121288176619998 -12.055853205888003 0.0
24 0 1 -30.6688 66.6017 2.90787 0.245574 0.0386181 0.968608 -11.99535995006 -13.799648790320001 1.8042888402510002 -11.995359950069 0.0
25 0 1 -2.3672 -44.4878 -2.25484 -0.00905738 0.18359 0.982961 -12.17485583196 -14.00135972944 1.8265038974580001 -12.174855831982 0.0
26 0 1 11.9295 58.9185 -1.06859 -0.170833 -0.0829027 0.981806 -12.22133645442 -14.03321033501 1.811873880585 -12.221336454425 0.0
27 0 1 6.92268 13.852 -16.7974 -0.015544 -0.299249 0.954048 -11.73130736877 -13.894453268430002 2.170162216601 -11.724291051829002 -0.00701631693496
28 0 1 -35.4701 26.0011 -0.655782 0.290104 0.0659122 0.954723 -12.20240658651 -14.019866186929999 1.8174596004189998 -12.202406586511 0.0
29 0 1 -76.6714 73.6629 3.5543 -0.19037 0.0880117 0.977759 -11.9483148206 -13.7198276394 1.7715128188200002 -11.94831482058 0.0
30 0 1 46.0872 70.148 2.31657 -0.223057 -0.167238 0.960353 -11.99535995006 -13.799648790320001 1.8042888402510002 -11.995359950069 0.0
31 0 1 65.3793 -26.5571 2.09167 -0.283563 -0.193355 0.939258 -11.99535995006 -13.799648790320001 1.8042888402510002 -11.995359950069 0.0
32 0 1 15.1788 23.3221 -12.0959 -0.526402 -0.287746 0.800064 -12.2254281365 -14.02676072724 1.801332590734 -12.225428136505998 0.0
33 0 1 -42.0703 14.989 2.54708 0.340224 -0.0737022 0.937452 -11.99535995006 -13.799648790320001 1.8042888402510002 -11.995359950069 0.0
34 0 1 38.4653 -47.1095 -0.638242 -0.254078 -0.155782 0.954555 -12.20240658651 -14.019866186929999 1.8174596004189998 -12.202406586511 0.0
35 0 1 5.63444 73.3533 1.4001 0.0422371 -0.133085 0.990204 -11.999136374099999 -13.798164620040001 1.7990282459690001 -11.999136374071002 0.0
36 0 1 -50.0056 64.0488 5.76899 0.0463376 0.165705 0.985086 -12.05585320589 -13.867982023550002 1.8121288176619998 -12.055853205888003 0.0
37 0 1 46.8087 9.78318 -3.98437 -0.341063 0.273782 0.899288 -12.21768646317 -14.030884781820001 1.813198318625 -12.217686463195001 0.0
38 0 1 35.3883 -43.8002 -1.23333 -0.320174 -0.217471 0.92206 -12.22133645442 -14.03321033501 1.811873880585 -12.221336454425 0.0
39 0 1 57.9061 -5.46109 -0.0819193 -0.00736418 0.15998 0.987093 -12.20240658651 -14.019866186929999 1.8174596004189998 -12.202406586511 0.0
40 0 1 -26.1395 5.19279 -3.93371 0.465297 0.381887 0.798537 -12.21768646317 -14.030884781820001 1.813198318625 -12.217686463195001 0.0
41 0 1 50.5608 -30.6769 1.07633 -0.138685 0.125701 0.982327 -12.088904241849999 -13.900483271799999 1.811579029952 -12.088904241847999 0.0
42 0 1 -8.33283 28.1384 -9.29379 0.450092 -0.105832 0.886689 -12.18562164983 -14.00390875603 1.8182871062050001 -12.185621649825 0.0
43 0 1 44.7413 -17.7704 -2.43298 -0.202957 0.032657 0.978643 -12.17485583196 -14.00135972944 1.8265038974580001 -12.174855831982 0.0
44 0 1 -43.4439 13.6546 2.86482 0.381206 -0.0522406 0.923013 -11.99535995006 -13.799648790320001 1.8042888402510002 -11.995359950069 0.0
45 0 1 -5.62175 16.5163 -11.6141 0.403647 -0.350888 0.844954 -12.194400917920001 -14.019154314440001 1.824753396525 -12.194400917915 0.0
46 0 1 38.5307 16.7661 -6.97239 -0.342629 -0.128806 0.930599 -12.18577625752 -14.02434295623 1.8385666987089997 -12.185776257521 0.0
47 0 1 -74.0981 -12.521 4.56543 0.0783067 0.00110783 0.996929 -12.00821020999 -13.800706167909999 1.792495957912 -12.008210209998 0.0
48 0 1 -53.3917 28.3075 4.44147 -0.142791 -0.108763 0.983759 -12.00821020999 -13.800706167909999 1.792495957912 -12.008210209998 0.0
49 0 1 59.7779 10.4552 -1.55679 0.0155892 0.050771 0.998589 -12.22133645442 -14.03321033501 1.811873880585 -12.221336454425 0.0
50 0 1 -50.5131 3.47458 4.07243 0.127991 -0.130897 0.983099 -11.9483148206 -13.7198276394 1.7715128188200002 -11.94831482058 0.0
51 0 1 52.3565 -10.2095 -0.355027 -0.0253943 0.0848537 0.99607 -12.20240658651 -14.019866186929999 1.8174596004189998 -12.202406586511 0.0
52 0 1 4.46814 2.2759 -16.0622 0.211166 0.625514 0.751093 -11.73130736877 -13.894453268430002 2.170162216601 -11.724291051829002 -0.00701631693496
53 0 1 42.2262 67.0561 1.78828 0.160011 -0.024445 0.986812 -11.999136374099999 -13.798164620040001 1.7990282459690001 -11.999136374071002 0.0
54 0 1 -68.8633 17.1082 3.77562 -0.155322 0.0129089 0.987779 -11.9483148206 -13.7198276394 1.7715128188200002 -11.94831482058 0.0
55 0 1 69.2792 16.1792 -0.196774 -0.0673393 -0.129544 0.989284 -12.20240658651 -14.019866186929999 1.8174596004189998 -12.202406586511 0.0
56 0 1 76.8515 42.8145 3.09527 0.124622 -0.191694 0.973511 -11.9483148206 -13.7198276394 1.7715128188200002 -11.94831482058 0.0
57 0 1 35.9507 54.5349 1.38678 0.00945811 -0.221095 0.975206 -11.999136374099999 -13.798164620040001 1.7990282459690001 -11.999136374071002 0.0
58 0 1 -52.8023 58.685 5.35815 -0.145325 0.0117837 0.989314 -12.05585320589 -13.867982023550002 1.8121288176619998 -12.055853205888003 0.0
59 0 1 41.7471 19.8438 -5.1638 -0.231585 -0.161555 0.959306 -12.21438860764 -14.02149776956 1.8071091618939998 -12.214388607666 0.0
60 0 1 -52.6153 53.8475 5.26163 -0.162935 0.0038853 0.986629 -12.05585320589 -13.867982023550002 1.8121288176619998 -12.055853205888003 0.0
61 0 1 -26.2026 68.8734 2.52735 -0.0169415 -0.167087 0.985797 -11.99535995006 -13.799648790320001 1.8042888402510002 -11.995359950069 0.0
62 0 1 62.8562 60.5666 4.55961 -0.160463 -0.0321642 0.986518 -12.00821020999 -13.800706167909999 1.792495957912 -12.008210209998 0.0
63 0 1 -55.5028 31.8588 4.40261 0.117159 0.207088 0.971282 -12.00821020999 -13.800706167909999 1.792495957912 -12.008210209998 0.0
64 0 1 2.96334 7.56941 -23.7573 0.949916 -0.306867 -0.0590995 -13.61216344875 -14.163801512800001 2.9155062346110006 -11.248295278189001 -2.36386817056
65 0 1 6.05541 9.52878 -34.2869 -0.517666 -0.816959 0.254167 -13.07661200604 -13.798319898269998 2.8374418328599997 -10.960878065409998 -2.1157339406170004
66 0 1 25.3603 -66.375 -0.689951 -0.10482 0.259959 0.959914 -12.20240658651 -14.019866186929999 1.8174596004189998 -12.202406586511 0.0
67 0 1 -69.6854 -42.5284 4.73778 -0.134363 0.0276581 0.990546 -12.00821020999 -13.800706167909999 1.792495957912 -12.008210209998 0.0
68 0 1 1.89194 17.5777 -14.69 0.110872 -0.399429 0.910035 -12.16132428164 -14.049159114770001 1.8878348331160002 -12.161324281654 0.0
69 0 1 -63.6199 -33.7143 4.66188 -0.259162 0.194479 0.946051 -12.00821020999 -13.800706167909999 1.792495957912 -12.008210209998 0.0
70 0 1 8.64095 4.72185 -23.4657 -0.786729 0.550638 0.279025 -13.61216344875 -14.163801512800001 2.9155062346110006 -11.248295278189001 -2.36386817056
71 0 1 -59.8031 69.6241 5.70541 0.070321 0.16529 0.983735 -12.05585320589 -13.867982023550002 1.8121288176619998 -12.055853205888003 0.0
72 0 1 2.96728 -11.7363 -10.2929 0.217193 0.469025 0.856062 -12.20635918073 -14.03630380013 1.829944619395 -12.206359180735 0.0
73 0 1 28.47 19.1511 -9.35543 -0.303853 -0.153876 0.94021 -12.18562164983 -14.00390875603 1.8182871062050001 -12.185621649825 0.0
74 0 1 22.8427 29.2872 -8.99784 -0.179174 -0.201187 0.963027 -12.18562164983 -14.00390875603 1.8182871062050001 -12.185621649825 0.0
75 0 1 -30.7174 -20.4917 -1.04315 0.250204 0.0348263 0.967567 -12.22133645442 -14.03321033501 1.811873880585 -12.221336454425 0.0
76 0 1 -9.51985 -74.3321 1.01386 -0.238541 -0.217411 0.946483 -12.088904241849999 -13.900483271799999 1.811579029952 -12.088904241847999 0.0
77 0 1 -27.4855 66.5089 2.62816 -0.0877196 0.273425 0.957885 -11.99535995006 -13.799648790320001 1.8042888402510002 -11.995359950069 0.0
78 0 1 -55.0122 28.3443 4.52285 0.112025 0.0257032 0.993373 -12.00821020999 -13.800706167909999 1.792495957912 -12.008210209998 0.0
79 0 1 26.9791 47.4435 -2.20606 0.00381261 -0.0510949 0.998687 -12.17485583196 -14.00135972944 1.8265038974580001 -12.174855831982 0.0
80 0 1 40.4102 3.29762 -5.15669 -0.322529 0.225788 0.919236 -12.21438860764 -14.02149776956 1.8071091618939998 -12.214388607666 0.0
81 0 1 14.1761 22.1831 -13.1392 -0.391772 -0.149624 0.907815 -12.250030493869998 -14.08578653655 1.8357560426910002 -12.250030493858999 0.0
82 0 1 -58.3924 26.1857 4.75941 -0.0976709 0.132185 0.986401 -12.00821020999 -13.800706167909999 1.792495957912 -12.008210209998 0.0
83 0 1 11.8518 -58.1332 -0.438449 0.0928973 0.266117 0.959454 -12.20240658651 -14.019866186929999 1.8174596004189998 -12.202406586511 0.0
84 0 1 15.617 7.9539 -14.5541 -0.500025 -0.0880678 0.861521 -12.16132428164 -14.049159114770001 1.8878348331160002 -12.161324281654 0.0
85 0 1 51.0806 -3.63252 -1.97233 -0.060981 -0.0557414 0.996581 -12.17485583196 -14.00135972944 1.8265038974580001 -12.174855831982 0.0
86 0 1 12.0103 -20.0764 -7.55557 -0.354758 0.069171 0.932396 -12.18577625752 -14.02434295623 1.8385666987089997 -12.185776257521 0.0
87 0 1 -53.5308 59.3866 5.48689 -0.101956 0.0812289 0.991467 -12.05585320589 -13.867982023550002 1.8121288176619998 -12.055853205888003 0.0
88 0 1 -40.3556 66.5594 3.9075 0.359155 -0.0486071 0.932011 -11.9483148206 -13.7198276394 1.7715128188200002 -11.94831482058 0.0
89 0 1 -75.9891 -52.4715 2.46305 0.0100303 -0.0357265 0.999311 -11.99535995006 -13.799648790320001 1.8042888402510002 -11.995359950069 0.0
90 0 1 -15.6139 66.5934 1.54881 0.0695605 0.119246 0.990425 -11.999136374099999 -13.798164620040001 1.7990282459690001 -11.999136374071002 0.0
91 0 1 -15.5033 55.408 0.817382 0.121474 -0.426858 0.896123 -12.088904241849999 -13.900483271799999 1.811579029952 -12.088904241847999 0.0
92 0 1 25.5141 -11.3389 -7.3203 -0.149966 0.257493 0.954572 -12.18577625752 -14.02434295623 1.8385666987089997 -12.185776257521 0.0
93 0 1 -52.0328 -7.85817 3.65104 0.331911 0.00247785 0.943307 -11.9483148206 -13.7198276394 1.7715128188200002 -11.94831482058 0.0
94 0 1 10.443 72.675 1.32689 0.168297 -0.183755 0.968458 -11.999136374099999 -13.798164620040001 1.7990282459690001 -11.999136374071002 0.0
95 0 1 68.0174 -66.9979 3.08702 -0.0723528 0.149679 0.986084 -11.9483148206 -13.7198276394 1.7715128188200002 -11.94831482058 0.0
96 0 1 -57.3834 -64.2445 4.17809 0.0406844 -0.0565836 0.997569 -12.00821020999 -13.800706167909999 1.792495957912 -12.008210209998 0.0
97 0 1 -15.4119 57.0243 1.03126 0.114727 -0.127034 0.985241 -12.088904241849999 -13.900483271799999 1.811579029952 -12.088904241847999 0.0
98 0 1 72.689 54.6301 4.3499 -0.00582011 -0.0481365 0.998824 -12.00821020999 -13.800706167909999 1.792495957912 -12.008210209998 0.0
99 0 1 23.7776 -8.94545 -8.43176 -0.0544353 0.367894 0.928273 -12.16895496421 -14.01016098096 1.841206016755 -12.168954964205 0.0
100 0 1 -65.0926 -12.5261 3.99549 0.201519 0.0544732 0.977969 -11.9483148206 -13.7198276394 1.7715128188200002 -11.94831482058 0.0
101 0 1 26.7908 -10.6602 -7.33195 0.0626262 0.430527 0.900403 -12.18577625752 -14.02434295623 1.8385666987089997 -12.185776257521 0.0
102 0 1 -28.3923 36.6212 -0.56557 0.449431 0.00245251 0.893312 -12.20240658651 -14.019866186929999 1.8174596004189998 -12.202406586511 0.0
103 0 1 3.86375 34.3857 -9.84902 0.19386 -0.407667 0.892315 -12.18562164983 -14.00390875603 1.8182871062050001 -12.185621649825 0.0
104 0 1 17.3029 48.5859 -3.20551 -0.205856 -0.293314 0.93359 -12.21333184802 -14.017044394580001 1.8037125465750001 -12.213331848005001 0.0
105 0 1 -69.8922 43.1626 3.14743 -0.162344 0.111969 0.980361 -11.9483148206 -13.7198276394 1.7715128188200002 -11.94831482058 0.0
106 0 1 -67.1636 11.4426 4.2323 -0.326591 -0.128238 0.936426 -12.00821020999 -13.800706167909999 1.792495957912 -12.008210209998 0.0
107 0 1 63.7121 -18.3757 2.48905 -0.0767633 -0.0517569 0.995705 -11.99535995006 -13.799648790320001 1.8042888402510002 -11.995359950069 0.0
108 0 1 6.30346 59.1894 -0.511687 0.119629 0.074216 0.990041 -12.20240658651 -14.019866186929999 1.8174596004189998 -12.202406586511 0.0
109 0 1 -61.1845 13.9514 5.01542 -0.148169 0.10126 0.983764 -12.00821020999 -13.800706167909999 1.792495957912 -12.008210209998 0.0
110 0 1 -75.9441 -12.1476 4.44557 0.0579694 0.195558 0.978977 -12.00821020999 -13.800706167909999 1.792495957912 -12.008210209998 0.0
111 0 1 54.2607 45.995 2.03636 -0.276762 -0.281068 0.918914 -11.999136374099999 -13.798164620040001 1.7990282459690001 -11.999136374071002 0.0
112 0 1 39.5217 58.3761 2.12555 -0.0388234 -0.0864144 0.995503 -11.99535995006 -13.799648790320001 1.8042888402510002 -11.995359950069 0.0
113 0 1 -10.7856 -8.00403 -8.0473 0.375938 0.331888 0.865171 -12.16895496421 -14.01016098096 1.841206016755 -12.168954964205 0.0
114 0 1 13.5794 56.3703 -0.916068 -0.286607 -0.269855 0.919258 -12.22133645442 -14.03321033501 1.811873880585 -12.221336454425 0.0
115 0 1 -66.8235 18.1686 4.07728 -0.17211 0.126017 0.976984 -11.9483148206 -13.7198276394 1.7715128188200002 -11.94831482058 0.0
116 0 1 -32.8916 -37.0559 0.750612 0.0786576 0.313484 0.94633 -12.088904241849999 -13.900483271799999 1.811579029952 -12.088904241847999 0.0
117 0 1 10.8716 50.7654 -2.51748 -0.065975 -0.317523 0.945953 -12.17485583196 -14.00135972944 1.8265038974580001 -12.174855831982 0.0
118 0 1 -21.2877 75.4353 2.67459 0.0334463 -0.071088 0.996909 -11.99535995006 -13.799648790320001 1.8042888402510002 -11.995359950069 0.0
119 0 1 69.8049 -63.0269 2.67746 0.309022 -0.247677 0.918238 -11.99535995006 -13.799648790320001 1.8042888402510002 -11.995359950069 0.0
120 0 1 -53.4742 65.6287 5.97379 -0.13926 -0.0586679 0.988516 -12.05585320589 -13.867982023550002 1.8121288176619998 -12.055853205888003 0.0
121 0 1 -50.7444 60.0907 5.29393 -0.0862341 -0.139382 0.986477 -12.05585320589 -13.867982023550002 1.8121288176619998 -12.055853205888003 0.0
122 0 1 53.0426 -21.0326 0.140063 -0.341654 0.0663359 0.937482 -12.088904241849999 -13.900483271799999 1.811579029952 -12.088904241847999 0.0
123 0 1 -70.603 15.116 3.36513 -0.225028 0.0417015 0.97346 -11.9483148206 -13.7198276394 1.7715128188200002 -11.94831482058 0.0
124 0 1 44.4382 -19.5416 -2.31138 -0.268462 0.0306299 0.962803 -12.17485583196 -14.00135972944 1.8265038974580001 -12.174855831982 0.0
125 0 1 44.37 -24.919 -0.673496 -0.160844 0.482214 0.861161 -12.20240658651 -14.019866186929999 1.8174596004189998 -12.202406586511 0.0
126 0 1 -23.0506 44.2911 0.197251 0.180028 -0.311546 0.933021 -12.088904241849999 -13.900483271799999 1.811579029952 -12.088904241847999 0.0
127 0 1 -17.8596 -17.4843 -3.81883 0.194322 -0.0215367 0.980701 -12.21333184802 -14.017044394580001 1.8037125465750001 -12.213331848005001 0.0
128 0 1 -5.08559 56.3232 -0.449112 0.179605 -0.128107 0.975362 -12.20240658651 -14.019866186929999 1.8174596004189998 -12.202406586511 0.0
129 0 1 47.0503 71.707 2.52156 -0.0564617 -0.0966069 0.99372 -11.99535995006 -13.799648790320001 1.8042888402510002 -11.995359950069 0.0
130 0 1 30.7935 13.1814 -9.9602 -0.410775 -0.206159 0.888123 -12.20635918073 -14.03630380013 1.829944619395 -12.206359180735 0.0
131 0 1 2.34448 -6.35747 -11.8179 0.157884 0.21081 0.964693 -12.194400917920001 -14.019154314440001 1.824753396525 -12.194400917915 0.0
132 0 1 -60.3268 64.1425 5.8566 0.0221009 -0.236608 0.971354 -12.05585320589 -13.867982023550002 1.8121288176619998 -12.055853205888003 0.0
133 0 1 -33.9105 -19.2458 -0.141461 0.130814 0.0119696 0.991335 -12.20240658651 -14.019866186929999 1.8174596004189998 -12.202406586511 0.0
134 0 1 11.0022 28.1856 -11.8142 0.155195 -0.198162 0.967805 -12.194400917920001 -14.019154314440001 1.824753396525 -12.194400917915 0.0
135 0 1 -61.6884 12.4542 5.31343 0.135884 0.15018 0.979276 -12.05585320589 -13.867982023550002 1.8121288176619998 -12.055853205888003 0.0
136 0 1 39.4806 -21.7252 -2.55734 -0.120195 0.421849 0.898664 -12.17485583196 -14.00135972944 1.8265038974580001 -12.174855831982 0.0
137 0 1 -75.2797 -35.6635 3.50682 -0.0583649 -0.0335544 0.997731 -11.9483148206 -13.7198276394 1.7715128188200002 -11.94831482058 0.0
138 0 1 -41.7675 29.5145 1.88014 0.324534 0.103735 0.940169 -11.999136374099999 -13.798164620040001 1.7990282459690001 -11.999136374071002 0.0
139 0 1 -10.9336 47.8858 -2.14033 0.332553 -0.457015 0.824952 -12.17485583196 -14.00135972944 1.8265038974580001 -12.174855831982 0.0
140 0 1 9.69401 17.6376 -14.8786 -0.026891 -0.474514 0.879837 -12.16132428164 -14.049159114770001 1.8878348331160002 -12.161324281654 0.0
141 0 1 28.7417 42.6264 -3.01551 -0.272937 -0.198087 0.941418 -12.21333184802 -14.017044394580001 1.8037125465750001 -12.213331848005001 0.0
142 0 1 -25.1884 37.8006 -1.82108 0.160451 -0.165602 0.973053 -12.22133645442 -14.03321033501 1.811873880585 -12.221336454425 0.0
143 0 1 -41.4835 30.2402 1.90053 0.152236 -0.114827 0.981651 -11.999136374099999 -13.798164620040001 1.7990282459690001 -11.999136374071002 0.0
144 0 1 -11.0851 76.1314 1.12119 -0.0297288 0.178652 0.983463 -11.999136374099999 -13.798164620040001 1.7990282459690001 -11.999136374071002 0.0
145 0 1 4.42125 -14.3993 -9.83438 0.157048 0.507666 0.847119 -12.18562164983 -14.00390875603 1.8182871062050001 -12.185621649825 0.0
146 0 1 -2.89438 9.11401 -13.2039 0.515301 -0.0292557 0.85651 -12.250030493869998 -14.08578653655 1.8357560426910002 -12.250030493858999 0.0
147 0 1 -38.879 -60.9289 4.90065 0.0837412 0.0636567 0.994452 -12.00821020999 -13.800706167909999 1.792495957912 -12.008210209998 0.0
148 0 1 11.0571 -15.977 -9.0766 -0.111821 0.453297 0.884318 -12.18562164983 -14.00390875603 1.8182871062050001 -12.185621649825 0.0
149 0 1 14.9803 -20.7819 -6.68678 -0.45454 -0.0306284 0.8902 -12.180127125919999 -14.009567450270001 1.829440324352 -12.180127125918002 0.0
150 0 1 -3.80241 67.1182 1.01805 0.101776 -0.105483 0.989199 -12.088904241849999 -13.900483271799999 1.811579029952 -12.088904241847999 0.0
151 0 1 -43.0946 -0.387656 2.11606 0.204075 -0.0310914 0.978461 -11.99535995006 -13.799648790320001 1.8042888402510002 -11.995359950069 0.0
152 0 1 -25.1272 23.0206 -3.43559 0.306318 -0.158245 0.938684 -12.21333184802 -14.017044394580001 1.8037125465750001 -12.213331848005001 0.0
153 0 1 29.1762 20.9581 -8.71989 -0.133792 0.198114 0.971005 -12.16895496421 -14.01016098096 1.841206016755 -12.168954964205 0.0
154 0 1 -51.2964 22.4287 4.47654 0.188348 0.199287 0.96167 -12.00821020999 -13.800706167909999 1.792495957912 -12.008210209998 0.0
155 0 1 14.9079 -3.183 -12.5118 -0.511574 0.226176 0.828937 -12.2254281365 -14.02676072724 1.801332590734 -12.225428136505998 0.0
156 0 1 -24.4208 67.843 2.4182 0.146557 -0.0182982 0.989033 -11.99535995006 -13.799648790320001 1.8042888402510002 -11.995359950069 0.0
157 0 1 2.45239 41.69 -7.29108 -0.147026 -0.416123 0.897343 -12.18577625752 -14.02434295623 1.8385666987089997 -12.185776257521 0.0
158 0 1 31.9051 -51.8403 -1.59275 0.135978 0.204291 0.96942 -12.22133645442 -14.03321033501 1.811873880585 -12.221336454425 0.0
159 0 1 -16.696 -37.5563 -1.47448 0.338917 0.147079 0.929249 -12.22133645442 -14.03321033501 1.811873880585 -12.221336454425 0.0
160 0 1 28.6987 -50.6458 -2.10123 -0.000797729 0.154593 0.987978 -12.17485583196 -14.00135972944 1.8265038974580001 -12.174855831982 0.0
161 0 1 -49.7536 28.1032 4.46505 -0.142655 0.121092 0.982337 -12.00821020999 -13.800706167909999 1.792495957912 -12.008210209998 0.0
162 0 1 3.44406 -34.0353 -5.00027 -0.0352925 0.147635 0.988412 -12.21438860764 -14.02149776956 1.8071091618939998 -12.214388607666 0.0
163 0 1 59.5072 22.6701 -1.23074 -0.0105672 0.0687352 0.997579 -12.22133645442 -14.03321033501 1.811873880585 -12.221336454425 0.0
164 0 1 66.5478 52.3222 3.98718 0.201013 -0.151866 0.967745 -11.9483148206 -13.7198276394 1.7715128188200002 -11.94831482058 0.0
165 0 1 44.9998 17.0395 -4.42306 -0.464467 -0.091787 0.880821 -12.21768646317 -14.030884781820001 1.813198318625 -12.217686463195001 0.0
166 0 1 51.2545 -40.0434 1.18304 -0.313212 0.278514 0.907925 -11.999136374099999 -13.798164620040001 1.7990282459690001 -11.999136374071002 0.0
167 0 1 -3.14073 -4.20198 -10.829 0.304071 0.139705 0.94235 -12.20635918073 -14.03630380013 1.829944619395 -12.206359180735 0.0
168 0 1 -3.54665 -19.9182 -7.08854 0.430044 0.324959 0.842297 -12.18577625752 -14.02434295623 1.8385666987089997 -12.185776257521 0.0
169 0 1 41.9916 -37.4012 0.206008 -0.165197 -0.233309 0.958268 -12.088904241849999 -13.900483271799999 1.811579029952 -12.088904241847999 0.0
170 0 1 69.6795 -67.1765 2.72635 -0.00594599 0.156663 0.987634 -11.99535995006 -13.799648790320001 1.8042888402510002 -11.995359950069 0.0
171 0 1 -17.0849 -11.981 -4.94999 0.360284 0.187347 0.913836 -12.21438860764 -14.02149776956 1.8071091618939998 -12.214388607666 0.0
172 0 1 -34.6984 57.0252 4.08659 0.0633145 0.0733267 0.995296 -12.00821020999 -13.800706167909999 1.792495957912 -12.008210209998 0.0
173 0 1 -58.2657 -42.9123 5.47844 0.207965 -0.0806472 0.974806 -12.05585320589 -13.867982023550002 1.8121288176619998 -12.055853205888003 0.0
174 0 1 -45.8759 -50.0989 4.83341 -0.0403869 0.26149 0.964361 -12.00821020999 -13.800706167909999 1.792495957912 -12.008210209998 0.0
175 0 1 -29.4523 69.059 2.87988 0.0782513 0.0182154 0.996767 -11.99535995006 -13.799648790320001 1.8042888402510002 -11.995359950069 0.0
176 0 1 -63.8211 75.4968 4.95328 -0.162141 0.315391 0.935007 -12.00821020999 -13.800706167909999 1.792495957912 -12.008210209998 0.0
177 0 1 42.6329 -26.1077 -0.91341 -0.123654 0.277162 0.952833 -12.20240658651 -14.019866186929999 1.8174596004189998 -12.202406586511 0.0
178 0 1 26.0331 -2.88717 -9.57602 -0.0854072 0.202857 0.975477 -12.18562164983 -14.00390875603 1.8182871062050001 -12.185621649825 0.0
179 0 1 21.6397 -1.34618 -11.064 -0.380915 0.258388 0.887772 -12.194400917920001 -14.019154314440001 1.824753396525 -12.194400917915 0.0
180 0 1 16.2817 27.5983 -11.0158 -0.158735 -0.165563 0.973341 -12.194400917920001 -14.019154314440001 1.824753396525 -12.194400917915 0.0
181 0 1 72.8348 34.9024 2.59628 -0.105873 0.00440028 0.99437 -11.99535995006 -13.799648790320001 1.8042888402510002 -11.995359950069 0.0
182 0 1 -22.8298 18.0659 -4.77709 0.434203 -0.26247 0.861729 -12.21768646317 -14.030884781820001 1.813198318625 -12.217686463195001 0.0
183 0 1 8.08396 -73.5618 2.12087 0.00635009 0.048722 0.998792 -11.99535995006 -13.799648790320001 1.8042888402510002 -11.995359950069 0.0
184 0 1 19.3617 -15.2464 -6.67513 -0.339765 0.374146 0.862887 -12.180127125919999 -14.009567450270001 1.829440324352 -12.180127125918002 0.0
185 0 1 -73.6166 -39.1619 3.64294 -0.105566 0.0185782 0.994239 -11.9483148206 -13.7198276394 1.7715128188200002 -11.94831482058 0.0
186 0 1 -21.4887 14.5831 -5.96295 0.406126 -0.104548 0.907817 -12.180127125919999 -14.009567450270001 1.829440324352 -12.180127125918002 0.0
187 0 1 17.2602 41.7036 -6.18289 -0.0399179 -0.419426 0.906911 -12.180127125919999 -14.009567450270001 1.829440324352 -12.180127125918002 0.0
188 0 1 -29.4056 -62.6982 4.04394 0.130026 0.0306222 0.991038 -11.9483148206 -13.7198276394 1.7715128188200002 -11.94831482058 0.0
189 0 1 -64.3802 -51.2042 4.64517 0.0739181 -0.0827351 0.993826 -12.00821020999 -13.800706167909999 1.792495957912 -12.008210209998 0.0
190 0 1 -52.5657 1.72766 4.54644 0.0267097 0.0656174 0.997487 -12.00821020999 -13.800706167909999 1.792495957912 -12.008210209998 0.0
191 0 1 31.6136 -31.6009 -2.61098 -0.279054 -0.0545951 0.958722 -12.17485583196 -14.00135972944 1.8265038974580001 -12.174855831982 0.0
192 0 1 26.7268 -8.78518 -7.93279 -0.208046 0.305024 0.929342 -12.16895496421 -14.01016098096 1.841206016755 -12.168954964205 0.0
193 0 1 11.2942 44.7237 -5.39839 -0.0974844 -0.427346 0.898817 -12.21438860764 -14.02149776956 1.8071091618939998 -12.214388607666 0.0
194 0 1 -9.42112 23.2722 -8.77433 0.521738 -0.224286 0.823095 -12.16895496421 -14.01016098096 1.841206016755 -12.168954964205 0.0
195 0 1 16.4493 -21.4384 -6.20247 -0.25621 0.138895 0.95659 -12.180127125919999 -14.009567450270001 1.829440324352 -12.180127125918002 0.0
196 0 1 -35.0289 26.7908 -0.613145 0.196767 -0.245739 0.949155 -12.20240658651 -14.019866186929999 1.8174596004189998 -12.202406586511 0.0
197 0 1 30.1057 -10.0252 -6.51744 -0.276449 0.190661 0.941926 -12.180127125919999 -14.009567450270001 1.829440324352 -12.180127125918002 0.0
198 0 1 67.6952 -40.8357 2.61746 -0.198313 -0.117839 0.973029 -11.99535995006 -13.799648790320001 1.8042888402510002 -11.995359950069 0.0
199 0 1 15.6814 61.3302 -0.317562 0.0570908 0.235798 0.970124 -12.20240658651 -14.019866186929999 1.8174596004189998 -12.202406586511 0.0
200 0 1 -9.64089 -11.0952 -7.6623 0.233128 0.184674 0.95475 -12.18577625752 -14.02434295623 1.8385666987089997 -12.185776257521 0.0
201 0 1 56.2739 58.3412 3.70651 -0.184824 0.062248 0.980798 -11.9483148206 -13.7198276394 1.7715128188200002 -11.94831482058 0.0
202 0 1 -20.8966 -69.2138 2.90974 0.338487 -0.216274 0.915779 -11.99535995006 -13.799648790320001 1.8042888402510002 -11.995359950069 0.0
203 0 1 28.8767 -44.7837 -2.85472 -0.0870039 -0.0270906 0.99584 -12.17485583196 -14.00135972944 1.8265038974580001 -12.174855831982 0.0
204 0 1 -3.20808 52.2505 -1.50171 0.149237 -0.442813 0.884107 -12.22133645442 -14.03321033501 1.811873880585 -12.221336454425 0.0
205 0 1 -45.8851 -71.1763 5.07318 -0.0139352 0.153142 0.988106 -12.00821020999 -13.800706167909999 1.792495957912 -12.008210209998 0.0
206 0 1 29.7417 -72.9463 0.592724 -0.146873 0.00867483 0.989117 -12.088904241849999 -13.900483271799999 1.811579029952 -12.088904241847999 0.0
207 0 1 -55.7663 53.8617 5.15158 0.117148 -0.0482894 0.99194 -12.05585320589 -13.867982023550002 1.8121288176619998 -12.055853205888003 0.0
208 0 1 -32.7254 16.265 -1.14256 0.422892 -0.227397 0.877184 -12.22133645442 -14.03321033501 1.811873880585 -12.221336454425 0.0
209 0 1 -11.0422 43.3116 -4.2297 0.233595 -0.301974 0.924254 -12.21768646317 -14.030884781820001 1.813198318625 -12.217686463195001 0.0
210 0 1 -59.7999 -28.1939 3.85552 0.210807 -0.0642258 0.975415 -11.9483148206 -13.7198276394 1.7715128188200002 -11.94831482058 0.0
211 0 1 54.015 22.5215 -1.79358 -0.0746432 -0.10645 0.991512 -12.22133645442 -14.03321033501 1.811873880585 -12.221336454425 0.0
212 0 1 -67.1847 -55.7447 3.78777 -0.408934 -0.0563674 0.910821 -11.9483148206 -13.7198276394 1.7715128188200002 -11.94831482058 0.0
213 0 1 8.88739 30.5193 -11.4599 -0.0897372 -0.116989 0.989071 -12.194400917920001 -14.019154314440001 1.824753396525 -12.194400917915 0.0
214 0 1 53.4258 -55.8289 3.32019 0.0705297 0.240749 0.968021 -11.9483148206 -13.7198276394 1.7715128188200002 -11.94831482058 0.0
215 0 1 52.5077 55.4954 3.14327 -0.248684 0.201316 0.947432 -11.9483148206 -13.7198276394 1.7715128188200002 -11.94831482058 0.0
216 0 1 31.9181 -25.6781 -3.31553 -0.30651 -0.0472021 0.950696 -12.21333184802 -14.017044394580001 1.8037125465750001 -12.213331848005001 0.0
217 0 1 67.5308 -29.6109 2.51404 -0.0529266 -0.0671098 0.996341 -11.99535995006 -13.799648790320001 1.8042888402510002 -11.995359950069 0.0
218 0 1 20.6899 22.1986 -11.1265 -0.290277 -0.132375 0.947743 -12.194400917920001 -14.019154314440001 1.824753396525 -12.194400917915 0.0
219 0 1 75.7771 60.4253 4.03381 -0.0482857 0.139043 0.989108 -11.9483148206 -13.7198276394 1.7715128188200002 -11.94831482058 0.0